 Gaussian 16, Revision C.01,
 Gaussian 16:  ES64L-G16RevC.01  3-Jul-2019

 -----------------
 #p HF/jun-cc-pv5z
 -----------------

 --
 SP
 --
 Symbolic Z-matrix:
 Charge =  0 Multiplicity = 1

                         Standard orientation:
 ---------------------------------------------------------------------
 Center     Atomic      Atomic             Coordinates (Angstroms)
 Number     Number       Type             X           Y           Z
 ---------------------------------------------------------------------
      1          6           0       -2.500543    0.312408   -0.141422
      2          1           0       -2.726343    1.039434   -0.926055
      3          1           0       -3.073747    0.609693    0.739544
      4          6           0       -1.039554    0.503007    0.225721
      5          8           0       -0.553284    1.633629    0.341752
      6          7           0       -0.337142   -0.621731    0.419705
      7          1           0       -0.842252   -1.486408    0.283335
      8          6           0        1.027736   -0.614819    0.917696
      9          1           0        1.091736    0.070268    1.768468
     10          1           0        1.285916   -1.618025    1.244764
     11          6           0        2.061028   -0.183939   -0.125162
     12          8           0        2.998298   -0.878903   -0.427997
     13          8           0        1.864217    1.025791   -0.655727
     14          1           0        1.054424    1.432639   -0.266375
     15          7           0       -2.815726   -1.072333   -0.484191
     16          1           0       -3.769104   -1.301009   -0.238694
     17          1           0       -2.716411   -1.232223   -1.478813
 ---------------------------------------------------------------------

 SCF Done:  E(RHF) =  -489.878423928     A.U. after   12 cycles

 The electronic state is 1-A.
 Alpha  occ. eigenvalues --  -20.58212 -20.54598 -20.53161 -15.61349 -15.58585
 Alpha  occ. eigenvalues --  -11.37673 -11.37365 -11.29702 -11.29636  -1.44561
 Alpha  occ. eigenvalues --   -1.40956  -1.34747  -1.27005  -1.22038  -1.02929
 Alpha  occ. eigenvalues --   -0.96511  -0.83213  -0.80462  -0.75009  -0.72912
 Alpha  occ. eigenvalues --   -0.71261  -0.69014  -0.65231  -0.64231  -0.61661
 Alpha  occ. eigenvalues --   -0.61459  -0.59521  -0.57800  -0.55607  -0.54545
 Alpha  occ. eigenvalues --   -0.47538  -0.46369  -0.46064  -0.43490  -0.41259
 Alpha virt. eigenvalues --    0.01725   0.03182   0.03606   0.04400   0.05532
 Alpha virt. eigenvalues --    0.05718   0.05997   0.06634   0.07262   0.08347
 Alpha virt. eigenvalues --    0.08575   0.08784   0.09341   0.09455   0.11104

 Mulliken charges:
               1
     1  C   -0.023614
     2  H    0.121955
     3  H    0.147986
     4  C    0.445814
     5  O   -0.655640
     6  N   -0.315028
     7  H    0.348816
     8  C   -0.115733
     9  H    0.150454
    10  H    0.150206
    11  C    0.640983
    12  O   -0.574081
    13  O   -0.669992
    14  H    0.528093
    15  N   -0.829843
    16  H    0.314893
    17  H    0.334731
 Sum of Mulliken charges =  -0.00000

 Dipole moment (field-independent basis, Debye):
    X=             -7.3845    Y=             -2.2027    Z=              1.3648  Tot=              7.8260
 Quadrupole moment (field-independent basis, Debye-Ang):
   XX=            -56.1117   YY=            -58.1635   ZZ=            -50.5641
   XY=              5.1298   XZ=              8.5574   YZ=             -0.6860

 Normal termination of Gaussian 16 at Thu Jan 28 22:56:25 2021.
