 Gaussian 16, Revision C.01,
 Gaussian 16:  ES64L-G16RevC.01  3-Jul-2019

 ----------------------
 #p CCSD(T) jun-cc-pVTZ
 ----------------------

 --
 SP
 --
 Symbolic Z-matrix:
 Charge =  0 Multiplicity = 1

                         Standard orientation:
 ---------------------------------------------------------------------
 Center     Atomic      Atomic             Coordinates (Angstroms)
 Number     Number       Type             X           Y           Z
 ---------------------------------------------------------------------
      1          6           0       -2.500543    0.312408   -0.141422
      2          1           0       -2.726343    1.039434   -0.926055
      3          1           0       -3.073747    0.609693    0.739544
      4          6           0       -1.039554    0.503007    0.225721
      5          8           0       -0.553284    1.633629    0.341752
      6          7           0       -0.337142   -0.621731    0.419705
      7          1           0       -0.842252   -1.486408    0.283335
      8          6           0        1.027736   -0.614819    0.917696
      9          1           0        1.091736    0.070268    1.768468
     10          1           0        1.285916   -1.618025    1.244764
     11          6           0        2.061028   -0.183939   -0.125162
     12          8           0        2.998298   -0.878903   -0.427997
     13          8           0        1.864217    1.025791   -0.655727
     14          1           0        1.054424    1.432639   -0.266375
     15          7           0       -2.815726   -1.072333   -0.484191
     16          1           0       -3.769104   -1.301009   -0.238694
     17          1           0       -2.716411   -1.232223   -1.478813
 ---------------------------------------------------------------------

 SCF Done:  E(RHF) =  -489.839498318     A.U. after   13 cycles
 E2 =    -0.1784348940D+01 EUMP2 =    -0.49162384725845D+03
 CCSD(T)
 CCSD(T)= -0.49173106291D+03

 The electronic state is 1-A.
 Alpha  occ. eigenvalues --  -20.58575 -20.54951 -20.53517 -15.61607 -15.58812
 Alpha  occ. eigenvalues --  -11.37821 -11.37535 -11.29840 -11.29769  -1.44682
 Alpha  occ. eigenvalues --   -1.41066  -1.34871  -1.27078  -1.22093  -1.02973
 Alpha  occ. eigenvalues --   -0.96544  -0.83245  -0.80486  -0.75013  -0.72919
 Alpha  occ. eigenvalues --   -0.71256  -0.69013  -0.65239  -0.64227  -0.61656
 Alpha  occ. eigenvalues --   -0.61456  -0.59515  -0.57794  -0.55601  -0.54530
 Alpha  occ. eigenvalues --   -0.47518  -0.46356  -0.46053  -0.43470  -0.41240
 Alpha virt. eigenvalues --    0.02922   0.04613   0.05317   0.06425   0.07591
 Alpha virt. eigenvalues --    0.07938   0.08288   0.09411   0.10369   0.11124
 Alpha virt. eigenvalues --    0.11758   0.11904   0.12976   0.13121   0.14630

 Mulliken charges:
               1
     1  C   -0.083311
     2  H    0.220822
     3  H    0.214945
     4  C    0.173771
     5  O   -0.650357
     6  N   -0.018297
     7  H    0.186516
     8  C   -0.227335
     9  H    0.223034
    10  H    0.231780
    11  C    0.456066
    12  O   -0.500729
    13  O   -0.424302
    14  H    0.324345
    15  N   -0.447070
    16  H    0.156078
    17  H    0.164044
 Sum of Mulliken charges =  -0.00000

 Dipole moment (field-independent basis, Debye):
    X=             -7.3896    Y=             -2.2056    Z=              1.3686  Tot=              7.8322
 Quadrupole moment (field-independent basis, Debye-Ang):
   XX=            -56.1472   YY=            -58.2331   ZZ=            -50.5975
   XY=              5.1320   XZ=              8.5813   YZ=             -0.6811

 1\1\GINC-CU39\SP\RCCSD(T)-FC\Jun-CC-pVTZ\C4H8N2O3\ROOT\28-Jan-2021\0\\
 #p CCSD(T) jun-cc-pVTZ\\SP\\0,1\C\H,1,1.09325266\H,1,1.09226475,2,106.
 82669456\C,1,1.51842379,3,106.0068906,2,113.61777088,0\O,4,1.23621512,
 1,121.06245671,3,-71.55753721,0\N,4,1.34016715,1,115.7184743,5,179.519
 61606,0\H,6,1.01064297,4,115.8844116,1,1.27725863,0\C,6,1.45290563,4,1
 22.54673513,1,-173.06572813,0\H,8,1.09419066,6,108.93103957,4,45.70826
 425,0\H,8,1.08630229,6,108.78837013,4,164.74880456,0\C,8,1.5300009,6,1
 13.71276023,4,-75.18113326,0\O,11,1.20547047,8,122.27418472,6,-123.460

 P4DQ=-491.6334624\MP4SDQ=-491.6549546\CCSD=-491.6493805\CCSD(T)=-491.7
 Normal termination of Gaussian 16 at Thu Jan 28 10:12:22 2021.
