 Gaussian 16, Revision C.01,
 Gaussian 16:  ES64L-G16RevC.01  3-Jul-2019

 ------------------
 #p MP2/jun-cc-pvqz
 ------------------

 --
 SP
 --
 Symbolic Z-matrix:
 Charge =  0 Multiplicity = 1

                         Standard orientation:
 ---------------------------------------------------------------------
 Center     Atomic      Atomic             Coordinates (Angstroms)
 Number     Number       Type             X           Y           Z
 ---------------------------------------------------------------------
      1          6           0       -2.500543    0.312408   -0.141422
      2          1           0       -2.726343    1.039434   -0.926055
      3          1           0       -3.073747    0.609693    0.739544
      4          6           0       -1.039554    0.503007    0.225721
      5          8           0       -0.553284    1.633629    0.341752
      6          7           0       -0.337142   -0.621731    0.419705
      7          1           0       -0.842252   -1.486408    0.283335
      8          6           0        1.027736   -0.614819    0.917696
      9          1           0        1.091736    0.070268    1.768468
     10          1           0        1.285916   -1.618025    1.244764
     11          6           0        2.061028   -0.183939   -0.125162
     12          8           0        2.998298   -0.878903   -0.427997
     13          8           0        1.864217    1.025791   -0.655727
     14          1           0        1.054424    1.432639   -0.266375
     15          7           0       -2.815726   -1.072333   -0.484191
     16          1           0       -3.769104   -1.301009   -0.238694
     17          1           0       -2.716411   -1.232223   -1.478813
 ---------------------------------------------------------------------

 SCF Done:  E(RHF) =  -489.871240004     A.U. after   12 cycles
 E2 =    -0.1904407624D+01 EUMP2 =    -0.49177564762883D+03

 The electronic state is 1-A.
 Alpha  occ. eigenvalues --  -20.58285 -20.54672 -20.53234 -15.61388 -15.58625
 Alpha  occ. eigenvalues --  -11.37698 -11.37392 -11.29724 -11.29658  -1.44586
 Alpha  occ. eigenvalues --   -1.40979  -1.34771  -1.27020  -1.22050  -1.02938
 Alpha  occ. eigenvalues --   -0.96518  -0.83219  -0.80466  -0.75010  -0.72913
 Alpha  occ. eigenvalues --   -0.71260  -0.69014  -0.65233  -0.64230  -0.61660
 Alpha  occ. eigenvalues --   -0.61458  -0.59520  -0.57798  -0.55605  -0.54542
 Alpha  occ. eigenvalues --   -0.47535  -0.46366  -0.46061  -0.43486  -0.41255
 Alpha virt. eigenvalues --    0.02306   0.03893   0.04471   0.05463   0.06529
 Alpha virt. eigenvalues --    0.06827   0.07135   0.08002   0.08807   0.09807
 Alpha virt. eigenvalues --    0.10144   0.10365   0.11123   0.11240   0.13580

 Mulliken charges:
               1
     1  C   -0.072106
     2  H    0.225068
     3  H    0.240542
     4  C    0.549244
     5  O   -0.749161
     6  N   -0.265090
     7  H    0.256942
     8  C   -0.337669
     9  H    0.246648
    10  H    0.260927
    11  C    0.862824
    12  O   -0.685187
    13  O   -0.654018
    14  H    0.380636
    15  N   -0.653212
    16  H    0.196212
    17  H    0.197401
 Sum of Mulliken charges =  -0.00000

 Dipole moment (field-independent basis, Debye):
    X=             -7.3847    Y=             -2.2029    Z=              1.3648  Tot=              7.8262
 Quadrupole moment (field-independent basis, Debye-Ang):
   XX=            -56.1180   YY=            -58.1731   ZZ=            -50.5737
   XY=              5.1302   XZ=              8.5597   YZ=             -0.6864

 Normal termination of Gaussian 16 at Wed Jan 27 22:34:49 2021.
