 Gaussian 16, Revision C.01,
 Gaussian 16:  ES64L-G16RevC.01  3-Jul-2019

 ----------------------
 #p CCSD(T) jun-cc-pVTZ
 ----------------------

 --
 SP
 --
 Symbolic Z-matrix:
 Charge =  0 Multiplicity = 1

                         Standard orientation:
 ---------------------------------------------------------------------
 Center     Atomic      Atomic             Coordinates (Angstroms)
 Number     Number       Type             X           Y           Z
 ---------------------------------------------------------------------
      1          6           0       -2.675649    0.161142    0.104735
      2          1           0       -3.078387    0.007412    1.108370
      3          1           0       -3.401668   -0.260584   -0.596703
      4          6           0       -1.429171   -0.707700    0.012359
      5          8           0       -1.502662   -1.927298   -0.079807
      6          7           0       -0.259564   -0.036424    0.059674
      7          1           0       -0.273908    0.969933    0.154416
      8          6           0        0.991721   -0.738217    0.019726
      9          1           0        1.114712   -1.402778    0.880616
     10          1           0        1.062680   -1.374331   -0.866921
     11          6           0        2.126377    0.249760    0.007093
     12          8           0        2.008010    1.450648    0.040887
     13          8           0        3.315828   -0.379042   -0.043109
     14          1           0        3.995712    0.310505   -0.043797
     15          7           0       -2.394543    1.582976   -0.080067
     16          1           0       -2.386652    1.826679   -1.062746
     17          1           0       -3.102826    2.152926    0.362274
 ---------------------------------------------------------------------

 SCF Done:  E(RHF) =  -489.843852772     A.U. after   13 cycles
 E2 =    -0.1778618466D+01 EUMP2 =    -0.49162247123866D+03
 CCSD(T)
 CCSD(T)= -0.49172951863D+03

 The electronic state is 1-A.
 Alpha  occ. eigenvalues --  -20.62829 -20.56647 -20.51545 -15.58409 -15.56580
 Alpha  occ. eigenvalues --  -11.40279 -11.34568 -11.29010 -11.27328  -1.48266
 Alpha  occ. eigenvalues --   -1.38189  -1.37685  -1.24356  -1.19872  -1.02756
 Alpha  occ. eigenvalues --   -0.94991  -0.83921  -0.79485  -0.72709  -0.71616
 Alpha  occ. eigenvalues --   -0.69144  -0.67906  -0.66679  -0.65385  -0.61397
 Alpha  occ. eigenvalues --   -0.60816  -0.58920  -0.57730  -0.56676  -0.50878
 Alpha  occ. eigenvalues --   -0.49876  -0.47353  -0.44105  -0.40802  -0.39723
 Alpha virt. eigenvalues --    0.04227   0.04845   0.06421   0.06839   0.07026
 Alpha virt. eigenvalues --    0.08339   0.08497   0.10230   0.10368   0.10862
 Alpha virt. eigenvalues --    0.12471   0.13035   0.13670   0.13955   0.15476

 Mulliken charges:
               1
     1  C   -0.119844
     2  H    0.206396
     3  H    0.215950
     4  C    0.070562
     5  O   -0.591601
     6  N    0.110725
     7  H    0.222831
     8  C   -0.242754
     9  H    0.226300
    10  H    0.229031
    11  C    0.390208
    12  O   -0.508777
    13  O   -0.313473
    14  H    0.225440
    15  N   -0.430385
    16  H    0.156189
    17  H    0.153203
 Sum of Mulliken charges =  -0.00000

 Dipole moment (field-independent basis, Debye):
    X=             -0.0568    Y=              2.4915    Z=             -0.2077  Tot=              2.5007
 Quadrupole moment (field-independent basis, Debye-Ang):
   XX=            -38.6008   YY=            -64.3847   ZZ=            -50.3361
   XY=            -10.3968   XZ=             -0.0775   YZ=             -1.6507

 1\1\GINC-CU39\SP\RCCSD(T)-FC\Jun-CC-pVTZ\C4H8N2O3\ROOT\29-Jan-2021\0\\
 #p CCSD(T) jun-cc-pVTZ\\SP\\0,1\C\H,1,1.09229759\H,1,1.09406201,2,106.
 86789433\C,1,1.52221127,2,106.10199249,3,-113.38625655,0\O,4,1.2252815
 1,1,121.57264013,2,73.07471525,0\N,4,1.3493816,1,115.0680188,5,-179.07
 413117,0\H,6,1.01090861,4,119.09223052,1,0.24989722,0\C,6,1.43520849,4
 ,120.76143338,1,178.26819011,0\H,8,1.09448604,6,111.89981,4,-62.524742
 22,0\H,8,1.09353514,6,111.32057598,4,56.00893848,0\C,8,1.50456053,6,10
 9.67232631,4,176.7689827,0\O,11,1.2071805,8,125.38384062,6,0.78783915,

 Q=-491.6336491\MP4SDQ=-491.6546245\CCSD=-491.6490992\CCSD(T)=-491.7295
 Normal termination of Gaussian 16 at Fri Jan 29 05:04:04 2021.
