 Gaussian 16, Revision C.01,
 Gaussian 16:  ES64L-G16RevC.01  3-Jul-2019

 -----------------
 #p HF/jun-cc-pv5z
 -----------------

 --
 SP
 --
 Symbolic Z-matrix:
 Charge =  0 Multiplicity = 1

                         Standard orientation:
 ---------------------------------------------------------------------
 Center     Atomic      Atomic             Coordinates (Angstroms)
 Number     Number       Type             X           Y           Z
 ---------------------------------------------------------------------
      1          6           0       -2.675649    0.161142    0.104735
      2          1           0       -3.078387    0.007412    1.108370
      3          1           0       -3.401668   -0.260584   -0.596703
      4          6           0       -1.429171   -0.707700    0.012359
      5          8           0       -1.502662   -1.927298   -0.079807
      6          7           0       -0.259564   -0.036424    0.059674
      7          1           0       -0.273908    0.969933    0.154416
      8          6           0        0.991721   -0.738217    0.019726
      9          1           0        1.114712   -1.402778    0.880616
     10          1           0        1.062680   -1.374331   -0.866921
     11          6           0        2.126377    0.249760    0.007093
     12          8           0        2.008010    1.450648    0.040887
     13          8           0        3.315828   -0.379042   -0.043109
     14          1           0        3.995712    0.310505   -0.043797
     15          7           0       -2.394543    1.582976   -0.080067
     16          1           0       -2.386652    1.826679   -1.062746
     17          1           0       -3.102826    2.152926    0.362274
 ---------------------------------------------------------------------

 SCF Done:  E(RHF) =  -489.882829350     A.U. after   12 cycles

 The electronic state is 1-A.
 Alpha  occ. eigenvalues --  -20.62466 -20.56291 -20.51200 -15.58144 -15.56356
 Alpha  occ. eigenvalues --  -11.40112 -11.34416 -11.28875 -11.27195  -1.48142
 Alpha  occ. eigenvalues --   -1.38072  -1.37568  -1.24281  -1.19818  -1.02709
 Alpha  occ. eigenvalues --   -0.94959  -0.83890  -0.79472  -0.72697  -0.71603
 Alpha  occ. eigenvalues --   -0.69143  -0.67907  -0.66682  -0.65384  -0.61404
 Alpha  occ. eigenvalues --   -0.60822  -0.58923  -0.57739  -0.56686  -0.50892
 Alpha  occ. eigenvalues --   -0.49886  -0.47356  -0.44129  -0.40823  -0.39746
 Alpha virt. eigenvalues --    0.02941   0.03361   0.04405   0.04866   0.05300
 Alpha virt. eigenvalues --    0.05951   0.06038   0.07422   0.07644   0.07774
 Alpha virt. eigenvalues --    0.09070   0.09224   0.09687   0.09990   0.11576

 Mulliken charges:
               1
     1  C   -0.004735
     2  H    0.134278
     3  H    0.117870
     4  C    0.402841
     5  O   -0.640241
     6  N   -0.411788
     7  H    0.399889
     8  C    0.004306
     9  H    0.144247
    10  H    0.144500
    11  C    0.641950
    12  O   -0.598744
    13  O   -0.601589
    14  H    0.440443
    15  N   -0.807340
    16  H    0.325055
    17  H    0.309058
 Sum of Mulliken charges =  -0.00000

 Dipole moment (field-independent basis, Debye):
    X=             -0.0553    Y=              2.4873    Z=             -0.2067  Tot=              2.4965
 Quadrupole moment (field-independent basis, Debye-Ang):
   XX=            -38.5769   YY=            -64.2972   ZZ=            -50.3136
   XY=            -10.3868   XZ=             -0.0801   YZ=             -1.6426

 Normal termination of Gaussian 16 at Thu Jan 28 21:42:13 2021.
