 Gaussian 16, Revision C.01,
 Gaussian 16:  ES64L-G16RevC.01  3-Jul-2019

 ------------------
 #p MP2/jun-cc-pvqz
 ------------------

 --
 SP
 --
 Symbolic Z-matrix:
 Charge =  0 Multiplicity = 1

                         Standard orientation:
 ---------------------------------------------------------------------
 Center     Atomic      Atomic             Coordinates (Angstroms)
 Number     Number       Type             X           Y           Z
 ---------------------------------------------------------------------
      1          6           0       -2.675649    0.161142    0.104735
      2          1           0       -3.078387    0.007412    1.108370
      3          1           0       -3.401668   -0.260584   -0.596703
      4          6           0       -1.429171   -0.707700    0.012359
      5          8           0       -1.502662   -1.927298   -0.079807
      6          7           0       -0.259564   -0.036424    0.059674
      7          1           0       -0.273908    0.969933    0.154416
      8          6           0        0.991721   -0.738217    0.019726
      9          1           0        1.114712   -1.402778    0.880616
     10          1           0        1.062680   -1.374331   -0.866921
     11          6           0        2.126377    0.249760    0.007093
     12          8           0        2.008010    1.450648    0.040887
     13          8           0        3.315828   -0.379042   -0.043109
     14          1           0        3.995712    0.310505   -0.043797
     15          7           0       -2.394543    1.582976   -0.080067
     16          1           0       -2.386652    1.826679   -1.062746
     17          1           0       -3.102826    2.152926    0.362274
 ---------------------------------------------------------------------

 SCF Done:  E(RHF) =  -489.875631078     A.U. after   12 cycles
 E2 =    -0.1898791015D+01 EUMP2 =    -0.49177442209334D+03

 The electronic state is 1-A.
 Alpha  occ. eigenvalues --  -20.62540 -20.56364 -20.51272 -15.58184 -15.56395
 Alpha  occ. eigenvalues --  -11.40139 -11.34442 -11.28898 -11.27217  -1.48167
 Alpha  occ. eigenvalues --   -1.38095  -1.37591  -1.24297  -1.19830  -1.02718
 Alpha  occ. eigenvalues --   -0.94966  -0.83897  -0.79475  -0.72700  -0.71606
 Alpha  occ. eigenvalues --   -0.69142  -0.67906  -0.66682  -0.65385  -0.61402
 Alpha  occ. eigenvalues --   -0.60821  -0.58921  -0.57737  -0.56684  -0.50889
 Alpha  occ. eigenvalues --   -0.49884  -0.47353  -0.44125  -0.40819  -0.39742
 Alpha virt. eigenvalues --    0.03547   0.04003   0.05446   0.05908   0.06144
 Alpha virt. eigenvalues --    0.07136   0.07228   0.08822   0.08997   0.09391
 Alpha virt. eigenvalues --    0.10794   0.11031   0.11570   0.12003   0.13898

 Mulliken charges:
               1
     1  C   -0.083957
     2  H    0.233887
     3  H    0.237829
     4  C    0.558438
     5  O   -0.744358
     6  N   -0.174562
     7  H    0.279740
     8  C   -0.352035
     9  H    0.261939
    10  H    0.263932
    11  C    0.766974
    12  O   -0.689619
    13  O   -0.619482
    14  H    0.312450
    15  N   -0.634446
    16  H    0.191114
    17  H    0.192154
 Sum of Mulliken charges =  -0.00000

 Dipole moment (field-independent basis, Debye):
    X=             -0.0554    Y=              2.4878    Z=             -0.2069  Tot=              2.4970
 Quadrupole moment (field-independent basis, Debye-Ang):
   XX=            -38.5842   YY=            -64.3079   ZZ=            -50.3232
   XY=            -10.3885   XZ=             -0.0787   YZ=             -1.6429

 Normal termination of Gaussian 16 at Thu Jan 28 00:35:25 2021.
