 Gaussian 16, Revision C.01,
 Gaussian 16:  ES64L-G16RevC.01  3-Jul-2019

 ------------------
 #p MP2/jun-cc-pvqz
 ------------------

 --
 SP
 --
 Symbolic Z-matrix:
 Charge =  0 Multiplicity = 1

                         Standard orientation:
 ---------------------------------------------------------------------
 Center     Atomic      Atomic             Coordinates (Angstroms)
 Number     Number       Type             X           Y           Z
 ---------------------------------------------------------------------
      1          6           0        2.417194    0.810573    0.145998
      2          1           0        2.397196    1.209411    1.165464
      3          1           0        2.180801    1.645528   -0.518719
      4          6           0        1.316434   -0.244629    0.054681
      5          8           0        1.552638   -1.445429    0.045526
      6          7           0        0.050733    0.240841    0.017368
      7          1           0       -0.139037    1.231149    0.016258
      8          6           0       -1.082242   -0.644639    0.003808
      9          1           0       -1.069005   -1.303441   -0.868967
     10          1           0       -1.096219   -1.297019    0.881600
     11          6           0       -2.346529    0.171426   -0.019204
     12          8           0       -2.391939    1.378799   -0.023237
     13          8           0       -3.435763   -0.615045   -0.034876
     14          1           0       -4.206630   -0.028814   -0.048741
     15          7           0        3.749249    0.320461   -0.145660
     16          1           0        3.902256   -0.533909    0.380002
     17          1           0        3.802127    0.044999   -1.119862
 ---------------------------------------------------------------------

 SCF Done:  E(RHF) =  -489.874715283     A.U. after   12 cycles
 E2 =    -0.1897198572D+01 EUMP2 =    -0.49177191385531D+03

 The electronic state is 1-A.
 Alpha  occ. eigenvalues --  -20.63382 -20.57273 -20.52609 -15.59476 -15.54486
 Alpha  occ. eigenvalues --  -11.41059 -11.35291 -11.29801 -11.27135  -1.49078
 Alpha  occ. eigenvalues --   -1.39213  -1.38646  -1.24920  -1.18911  -1.03773
 Alpha  occ. eigenvalues --   -0.94292  -0.84323  -0.80927  -0.73378  -0.72529
 Alpha  occ. eigenvalues --   -0.69355  -0.68264  -0.67443  -0.65949  -0.62065
 Alpha  occ. eigenvalues --   -0.60606  -0.59294  -0.57848  -0.55969  -0.51200
 Alpha  occ. eigenvalues --   -0.50677  -0.48383  -0.44812  -0.41023  -0.40279
 Alpha virt. eigenvalues --    0.03543   0.04356   0.05143   0.05348   0.06242
 Alpha virt. eigenvalues --    0.06916   0.07380   0.08561   0.08938   0.09200
 Alpha virt. eigenvalues --    0.10505   0.10910   0.11114   0.12078   0.13269

 Mulliken charges:
               1
     1  C   -0.077699
     2  H    0.243065
     3  H    0.224322
     4  C    0.612227
     5  O   -0.741717
     6  N   -0.242993
     7  H    0.245991
     8  C   -0.343231
     9  H    0.263293
    10  H    0.265136
    11  C    0.771607
    12  O   -0.690967
    13  O   -0.615195
    14  H    0.312935
    15  N   -0.619084
    16  H    0.209687
    17  H    0.182624
 Sum of Mulliken charges =  -0.00000

 Dipole moment (field-independent basis, Debye):
    X=             -2.6706    Y=              0.8244    Z=             -0.2834  Tot=              2.8093
 Quadrupole moment (field-independent basis, Debye-Ang):
   XX=            -52.9319   YY=            -61.1033   ZZ=            -50.1360
   XY=              3.1444   XZ=             -1.2351   YZ=             -0.0484

 Normal termination of Gaussian 16 at Wed Jan 27 23:34:36 2021.
