 Gaussian 16, Revision C.01,
 Gaussian 16:  ES64L-G16RevC.01  3-Jul-2019

 -----------------
 #p HF/jun-cc-pv5z
 -----------------

 --
 SP
 --
 Symbolic Z-matrix:
 Charge =  0 Multiplicity = 1

                         Standard orientation:
 ---------------------------------------------------------------------
 Center     Atomic      Atomic             Coordinates (Angstroms)
 Number     Number       Type             X           Y           Z
 ---------------------------------------------------------------------
      1          6           0        2.417194    0.810573    0.145998
      2          1           0        2.397196    1.209411    1.165464
      3          1           0        2.180801    1.645528   -0.518719
      4          6           0        1.316434   -0.244629    0.054681
      5          8           0        1.552638   -1.445429    0.045526
      6          7           0        0.050733    0.240841    0.017368
      7          1           0       -0.139037    1.231149    0.016258
      8          6           0       -1.082242   -0.644639    0.003808
      9          1           0       -1.069005   -1.303441   -0.868967
     10          1           0       -1.096219   -1.297019    0.881600
     11          6           0       -2.346529    0.171426   -0.019204
     12          8           0       -2.391939    1.378799   -0.023237
     13          8           0       -3.435763   -0.615045   -0.034876
     14          1           0       -4.206630   -0.028814   -0.048741
     15          7           0        3.749249    0.320461   -0.145660
     16          1           0        3.902256   -0.533909    0.380002
     17          1           0        3.802127    0.044999   -1.119862
 ---------------------------------------------------------------------

 SCF Done:  E(RHF) =  -489.881915970     A.U. after   12 cycles

 The electronic state is 1-A.
 Alpha  occ. eigenvalues --  -20.63308 -20.57201 -20.52538 -15.59436 -15.54446
 Alpha  occ. eigenvalues --  -11.41032 -11.35265 -11.29778 -11.27113  -1.49053
 Alpha  occ. eigenvalues --   -1.39191  -1.38622  -1.24905  -1.18898  -1.03763
 Alpha  occ. eigenvalues --   -0.94285  -0.84316  -0.80924  -0.73374  -0.72526
 Alpha  occ. eigenvalues --   -0.69356  -0.68265  -0.67443  -0.65948  -0.62067
 Alpha  occ. eigenvalues --   -0.60607  -0.59296  -0.57850  -0.55971  -0.51203
 Alpha  occ. eigenvalues --   -0.50680  -0.48386  -0.44816  -0.41026  -0.40283
 Alpha virt. eigenvalues --    0.02909   0.03702   0.04197   0.04461   0.05312
 Alpha virt. eigenvalues --    0.05833   0.06149   0.07235   0.07387   0.07763
 Alpha virt. eigenvalues --    0.08755   0.09180   0.09381   0.10078   0.11259

 Mulliken charges:
               1
     1  C    0.025977
     2  H    0.112200
     3  H    0.116037
     4  C    0.444862
     5  O   -0.644722
     6  N   -0.458083
     7  H    0.378420
     8  C   -0.001014
     9  H    0.139771
    10  H    0.143428
    11  C    0.659157
    12  O   -0.609902
    13  O   -0.598114
    14  H    0.441806
    15  N   -0.773965
    16  H    0.317164
    17  H    0.306978
 Sum of Mulliken charges =  -0.00000

 Dipole moment (field-independent basis, Debye):
    X=             -2.6705    Y=              0.8243    Z=             -0.2832  Tot=              2.8091
 Quadrupole moment (field-independent basis, Debye-Ang):
   XX=            -52.9247   YY=            -61.0931   ZZ=            -50.1252
   XY=              3.1458   XZ=             -1.2343   YZ=             -0.0486

 Normal termination of Gaussian 16 at Fri Jan 29 00:03:38 2021.
