 Gaussian 16, Revision C.01,
 Gaussian 16:  ES64L-G16RevC.01  3-Jul-2019

 ----------------------
 #p CCSD(T) jun-cc-pVTZ
 ----------------------

 --
 SP
 --
 Symbolic Z-matrix:
 Charge =  0 Multiplicity = 1

                         Standard orientation:
 ---------------------------------------------------------------------
 Center     Atomic      Atomic             Coordinates (Angstroms)
 Number     Number       Type             X           Y           Z
 ---------------------------------------------------------------------
      1          6           0        2.417194    0.810573    0.145998
      2          1           0        2.397196    1.209411    1.165464
      3          1           0        2.180801    1.645528   -0.518719
      4          6           0        1.316434   -0.244629    0.054681
      5          8           0        1.552638   -1.445429    0.045526
      6          7           0        0.050733    0.240841    0.017368
      7          1           0       -0.139037    1.231149    0.016258
      8          6           0       -1.082242   -0.644639    0.003808
      9          1           0       -1.069005   -1.303441   -0.868967
     10          1           0       -1.096219   -1.297019    0.881600
     11          6           0       -2.346529    0.171426   -0.019204
     12          8           0       -2.391939    1.378799   -0.023237
     13          8           0       -3.435763   -0.615045   -0.034876
     14          1           0       -4.206630   -0.028814   -0.048741
     15          7           0        3.749249    0.320461   -0.145660
     16          1           0        3.902256   -0.533909    0.380002
     17          1           0        3.802127    0.044999   -1.119862
 ---------------------------------------------------------------------

 SCF Done:  E(RHF) =  -489.842928052     A.U. after   13 cycles
 E2 =    -0.1777101960D+01 EUMP2 =    -0.49162003001175D+03
 CCSD(T)
 CCSD(T)= -0.49172752154D+03

 The electronic state is 1-A.
 Alpha  occ. eigenvalues --  -20.63672 -20.57558 -20.52881 -15.59702 -15.54670
 Alpha  occ. eigenvalues --  -11.41200 -11.35416 -11.29914 -11.27248  -1.49178
 Alpha  occ. eigenvalues --   -1.39303  -1.38744  -1.24981  -1.18952  -1.03810
 Alpha  occ. eigenvalues --   -0.94319  -0.84348  -0.80939  -0.73390  -0.72542
 Alpha  occ. eigenvalues --   -0.69355  -0.68264  -0.67443  -0.65949  -0.62060
 Alpha  occ. eigenvalues --   -0.60606  -0.59292  -0.57842  -0.55960  -0.51190
 Alpha  occ. eigenvalues --   -0.50668  -0.48385  -0.44797  -0.41003  -0.40257
 Alpha virt. eigenvalues --    0.04343   0.05110   0.06027   0.06293   0.07131
 Alpha virt. eigenvalues --    0.08056   0.08623   0.09935   0.10328   0.10564
 Alpha virt. eigenvalues --    0.12345   0.12680   0.12970   0.14288   0.14777

 Mulliken charges:
               1
     1  C   -0.268828
     2  H    0.212931
     3  H    0.205740
     4  C    0.240593
     5  O   -0.587811
     6  N    0.025712
     7  H    0.183661
     8  C   -0.214731
     9  H    0.230901
    10  H    0.229501
    11  C    0.409069
    12  O   -0.518930
    13  O   -0.309735
    14  H    0.226569
    15  N   -0.393206
    16  H    0.171794
    17  H    0.156771
 Sum of Mulliken charges =  -0.00000

 Dipole moment (field-independent basis, Debye):
    X=             -2.6737    Y=              0.8260    Z=             -0.2839  Tot=              2.8127
 Quadrupole moment (field-independent basis, Debye-Ang):
   XX=            -52.9714   YY=            -61.1737   ZZ=            -50.1511
   XY=              3.1312   XZ=             -1.2392   YZ=             -0.0475

 1\1\GINC-CU39\SP\RCCSD(T)-FC\Jun-CC-pVTZ\C4H8N2O3\ROOT\28-Jan-2021\0\\
 #p CCSD(T) jun-cc-pVTZ\\SP\\0,1\C\H,1,1.09488931\H,1,1.09310576,2,106.
 49995918\C,1,1.52756755,3,109.59998617,2,115.53776918,0\O,4,1.22384508
 ,1,122.62486549,3,139.77536454,0\N,4,1.35612404,1,115.27152907,5,178.4
 396696,0\H,6,1.00832724,4,121.82120742,1,2.14154729,0\C,6,1.43801636,4
 ,121.00853942,1,-176.63673655,0\H,8,1.09358653,6,111.6502716,4,-60.269
 671,0\H,8,1.09376132,6,111.70185133,4,58.66140379,0\C,8,1.50496287,6,1
 09.15481289,4,179.22500935,0\O,11,1.20823338,8,124.99377992,6,-0.11223

 =-491.6318201\MP4SDQ=-491.6527886\CCSD=-491.6472716\CCSD(T)=-491.72752
 Normal termination of Gaussian 16 at Thu Jan 28 19:33:51 2021.
