 Gaussian 16, Revision C.01,
 Gaussian 16:  AM64L-G16RevC.01  3-Jul-2019

 --------------
 #p MP2 cc-pVQZ
 --------------

 --------------------------
 start best geom PCCP paper
 --------------------------
 Symbolic Z-matrix:
 Charge =  0 Multiplicity = 1

                         Standard orientation:
 ---------------------------------------------------------------------
 Center     Atomic      Atomic             Coordinates (Angstroms)
 Number     Number       Type             X           Y           Z
 ---------------------------------------------------------------------
      1          7           0       -1.777783    0.124928   -0.048772
      2          1           0       -2.176227    0.113925   -0.975812
      3          6           0       -0.642823   -0.786994    0.071611
      4          6           0        0.686110   -0.041625    0.003814
      5          1           0       -0.662886   -1.287754    1.038553
      6          1           0       -0.617441   -1.563047   -0.691946
      7          8           0        1.742553   -0.607441   -0.059578
      8          8           0        0.574514    1.288852    0.038515
      9          1           0       -2.512293   -0.090938    0.606942
     10          1           0       -0.382931    1.473747    0.079614
 ---------------------------------------------------------------------

 SCF Done:  E(RHF) =  -282.964679006     A.U. after   13 cycles
 E2 =    -0.1086406274D+01 EUMP2 =    -0.28405108528001D+03

 The electronic state is 1-A.
 Alpha  occ. eigenvalues --  -20.59423 -20.52987 -15.58563 -11.37235 -11.28912
 Alpha  occ. eigenvalues --   -1.45291  -1.35526  -1.22328  -0.97872  -0.81132
 Alpha  occ. eigenvalues --   -0.73653  -0.71419  -0.67678  -0.62720  -0.62257
 Alpha  occ. eigenvalues --   -0.56207  -0.55781  -0.47339  -0.46497  -0.42421
 Alpha virt. eigenvalues --    0.08823   0.12931   0.13950   0.16996   0.17751
 Alpha virt. eigenvalues --    0.21377   0.23602   0.26002   0.29249   0.32892
 Alpha virt. eigenvalues --    0.35860   0.36859   0.36960   0.40543   0.43041

 Mulliken charges:
               1
     1  N   -0.410216
     2  H    0.152453
     3  C   -0.088549
     4  C    0.565997
     5  H    0.095976
     6  H    0.102002
     7  O   -0.455529
     8  O   -0.416814
     9  H    0.162466
    10  H    0.292214
 Sum of Mulliken charges =  -0.00000

 Dipole moment (field-independent basis, Debye):
    X=             -5.8953    Y=             -0.7044    Z=             -0.0098  Tot=              5.9372
 Quadrupole moment (field-independent basis, Debye-Ang):
   XX=            -32.0710   YY=            -31.1470   ZZ=            -27.0456
   XY=              1.7868   XZ=              0.5516   YZ=             -0.4778

 Normal termination of Gaussian 16 at Fri Jan 15 18:03:59 2021.
