 Gaussian 16, Revision C.01,
 Gaussian 16:  AM64L-G16RevC.01  3-Jul-2019

 --------------
 #p MP2 cc-pVQZ
 --------------

 --------------------------
 start best geom PCCP paper
 --------------------------
 Symbolic Z-matrix:
 Charge =  0 Multiplicity = 1

                         Standard orientation:
 ---------------------------------------------------------------------
 Center     Atomic      Atomic             Coordinates (Angstroms)
 Number     Number       Type             X           Y           Z
 ---------------------------------------------------------------------
      1          6           0        0.618518   -0.113452    0.015582
      2          8           0        0.629857    1.232314    0.102216
      3          8           0        1.611391   -0.762918   -0.179712
      4          1           0        1.543352    1.512541   -0.033863
      5          6           0       -0.754494   -0.683284    0.258311
      6          7           0       -1.797230    0.162725   -0.300561
      7          1           0       -0.825344   -0.835413    1.343137
      8          1           0       -0.780740   -1.661095   -0.214728
      9          1           0       -2.709920   -0.223225   -0.105836
     10          1           0       -1.760866    1.093359    0.091830
 ---------------------------------------------------------------------

 SCF Done:  E(RHF) =  -282.964883733     A.U. after   13 cycles
 E2 =    -0.1082538042D+01 EUMP2 =    -0.28404742177440D+03

 The electronic state is 1-A.
 Alpha  occ. eigenvalues --  -20.61419 -20.54790 -15.55368 -11.38592 -11.27658
 Alpha  occ. eigenvalues --   -1.47108  -1.36574  -1.19891  -0.97794  -0.82827
 Alpha  occ. eigenvalues --   -0.71643  -0.69013  -0.67069  -0.64928  -0.60099
 Alpha  occ. eigenvalues --   -0.58479  -0.55874  -0.48927  -0.45978  -0.40722
 Alpha virt. eigenvalues --    0.10380   0.13177   0.15184   0.16046   0.17707
 Alpha virt. eigenvalues --    0.20227   0.24943   0.26844   0.30058   0.33337
 Alpha virt. eigenvalues --    0.35134   0.36696   0.38118   0.40198   0.43706

 Mulliken charges:
               1
     1  C    0.583351
     2  O   -0.419068
     3  O   -0.469724
     4  H    0.267053
     5  C   -0.026401
     6  N   -0.407603
     7  H    0.043355
     8  H    0.118074
     9  H    0.147755
    10  H    0.163208
 Sum of Mulliken charges =  -0.00000

 Dipole moment (field-independent basis, Debye):
    X=             -1.8946    Y=              1.1255    Z=              1.5888  Tot=              2.7168
 Quadrupole moment (field-independent basis, Debye-Ang):
   XX=            -28.3478   YY=            -28.5440   ZZ=            -30.9128
   XY=              6.1624   XZ=             -1.9248   YZ=             -0.2842

 Normal termination of Gaussian 16 at Fri Jan 15 13:46:22 2021.
