 Gaussian 16, Revision C.01,
 Gaussian 16:  AM64L-G16RevC.01  3-Jul-2019

 --------------
 #p MP2 cc-pVQZ
 --------------

 --------------------------
 start best geom PCCP paper
 --------------------------
 Symbolic Z-matrix:
 Charge =  0 Multiplicity = 1

                         Standard orientation:
 ---------------------------------------------------------------------
 Center     Atomic      Atomic             Coordinates (Angstroms)
 Number     Number       Type             X           Y           Z
 ---------------------------------------------------------------------
      1          6           0        0.533710    0.102893    0.014867
      2          8           0        1.632185   -0.670799   -0.066880
      3          8           0        0.575034    1.304539    0.045254
      4          1           0        2.393950   -0.078239   -0.074783
      5          6           0       -0.719436   -0.723120    0.103930
      6          7           0       -1.876755    0.096522   -0.192365
      7          1           0       -0.714656   -1.160119    1.109923
      8          1           0       -0.636201   -1.548521   -0.602525
      9          1           0       -2.714348   -0.276671    0.227657
     10          1           0       -1.734852    1.039339    0.146516
 ---------------------------------------------------------------------

 SCF Done:  E(RHF) =  -282.966929335     A.U. after   12 cycles
 E2 =    -0.1082783237D+01 EUMP2 =    -0.28404971257279D+03

 The electronic state is 1-A.
 Alpha  occ. eigenvalues --  -20.61627 -20.55261 -15.54525 -11.38884 -11.27575
 Alpha  occ. eigenvalues --   -1.47417  -1.37062  -1.19356  -0.98215  -0.81505
 Alpha  occ. eigenvalues --   -0.72261  -0.71104  -0.67157  -0.63303  -0.60322
 Alpha  occ. eigenvalues --   -0.57724  -0.56474  -0.49145  -0.46190  -0.40332
 Alpha virt. eigenvalues --    0.10918   0.12649   0.15724   0.16027   0.18619
 Alpha virt. eigenvalues --    0.19733   0.25157   0.26825   0.29604   0.33235
 Alpha virt. eigenvalues --    0.33858   0.36753   0.40339   0.41232   0.44597

 Mulliken charges:
               1
     1  C    0.586786
     2  O   -0.416839
     3  O   -0.478256
     4  H    0.273935
     5  C   -0.010180
     6  N   -0.415203
     7  H    0.050608
     8  H    0.088680
     9  H    0.142448
    10  H    0.178022
 Sum of Mulliken charges =  -0.00000

 Dipole moment (field-independent basis, Debye):
    X=              0.0760    Y=             -1.7773    Z=              1.3307  Tot=              2.2215
 Quadrupole moment (field-independent basis, Debye-Ang):
   XX=            -23.5044   YY=            -33.1727   ZZ=            -30.3591
   XY=              1.2016   XZ=             -3.3396   YZ=              0.0997

 Normal termination of Gaussian 16 at Fri Jan 15 13:57:23 2021.
