 Gaussian 16, Revision C.01,
 Gaussian 16:  AM64L-G16RevC.01  3-Jul-2019

 --------------
 #p MP2 cc-pVQZ
 --------------

 --------------------------
 start best geom PCCP paper
 --------------------------
 Symbolic Z-matrix:
 Charge =  0 Multiplicity = 1

                         Standard orientation:
 ---------------------------------------------------------------------
 Center     Atomic      Atomic             Coordinates (Angstroms)
 Number     Number       Type             X           Y           Z
 ---------------------------------------------------------------------
      1          6           0       -0.000000    0.635900    0.000000
      2          8           0       -1.323949    0.381124    0.000000
      3          8           0        0.447609    1.752947    0.000000
      4          1           0       -1.766360    1.239435    0.000000
      5          6           0        0.856429   -0.616662   -0.000000
      6          7           0        0.200424   -1.903701   -0.000000
      7          1           0        1.506780   -0.534947    0.870775
      8          1           0        1.506780   -0.534947   -0.870775
      9          1           0       -0.389012   -2.015816   -0.812151
     10          1           0       -0.389012   -2.015816    0.812151
 ---------------------------------------------------------------------

 SCF Done:  E(RHF) =  -282.966278572     A.U. after   13 cycles
 E2 =    -0.1082727533D+01 EUMP2 =    -0.28404900610431D+03

 The electronic state is 1-A'.
 Alpha  occ. eigenvalues --  -20.61815 -20.54777 -15.55341 -11.38552 -11.27694
 Alpha  occ. eigenvalues --   -1.47311  -1.36678  -1.20085  -0.97472  -0.83296
 Alpha  occ. eigenvalues --   -0.71033  -0.70044  -0.69441  -0.63159  -0.59822
 Alpha  occ. eigenvalues --   -0.58270  -0.54744  -0.48641  -0.48291  -0.40429
 Alpha virt. eigenvalues --    0.10567   0.13653   0.14819   0.14913   0.16592
 Alpha virt. eigenvalues --    0.22414   0.24143   0.27460   0.31678   0.32377
 Alpha virt. eigenvalues --    0.33685   0.38661   0.39105   0.39398   0.42470

 Mulliken charges:
               1
     1  C    0.560297
     2  O   -0.420070
     3  O   -0.470194
     4  H    0.273745
     5  C   -0.091845
     6  N   -0.373074
     7  H    0.116835
     8  H    0.116835
     9  H    0.143736
    10  H    0.143736
 Sum of Mulliken charges =  -0.00000

 Dipole moment (field-independent basis, Debye):
    X=             -1.7910    Y=             -1.0147    Z=              0.0000  Tot=              2.0584
 Quadrupole moment (field-independent basis, Debye-Ang):
   XX=            -27.7511   YY=            -37.0114   ZZ=            -27.1304
   XY=             -2.2012   XZ=             -0.0000   YZ=             -0.0000

 Normal termination of Gaussian 16 at Fri Jan 15 14:05:45 2021.
