 Gaussian 16, Revision C.01,
 Gaussian 16:  AM64L-G16RevC.01  3-Jul-2019

 --------------
 #p MP2 cc-pVQZ
 --------------

 --------------------------
 start best geom PCCP paper
 --------------------------
 Symbolic Z-matrix:
 Charge =  0 Multiplicity = 1

                         Standard orientation:
 ---------------------------------------------------------------------
 Center     Atomic      Atomic             Coordinates (Angstroms)
 Number     Number       Type             X           Y           Z
 ---------------------------------------------------------------------
      1          6           0        0.000000    0.573396   -0.000000
      2          8           0        0.957640    1.531040   -0.000000
      3          8           0       -1.156728    0.877678   -0.000000
      4          1           0        1.833849    1.134152   -0.000000
      5          6           0        0.517981   -0.858483    0.000000
      6          7           0       -0.496418   -1.881566    0.000000
      7          1           0        1.159024   -0.981844    0.876153
      8          1           0        1.159024   -0.981844   -0.876153
      9          1           0       -1.096075   -1.779366    0.807682
     10          1           0       -1.096075   -1.779366   -0.807682
 ---------------------------------------------------------------------

 SCF Done:  E(RHF) =  -282.960556390     A.U. after   12 cycles
 E2 =    -0.1083266174D+01 EUMP2 =    -0.28404382256371D+03

 The electronic state is 1-A'.
 Alpha  occ. eigenvalues --  -20.61618 -20.54783 -15.55634 -11.38417 -11.28899
 Alpha  occ. eigenvalues --   -1.46706  -1.37161  -1.20566  -0.97529  -0.83423
 Alpha  occ. eigenvalues --   -0.73843  -0.70516  -0.67181  -0.63114  -0.60719
 Alpha  occ. eigenvalues --   -0.58967  -0.54713  -0.48765  -0.46907  -0.41611
 Alpha virt. eigenvalues --    0.09241   0.12097   0.13906   0.16569   0.17215
 Alpha virt. eigenvalues --    0.21208   0.23205   0.27907   0.28226   0.33990
 Alpha virt. eigenvalues --    0.34421   0.37132   0.38221   0.40274   0.40626

 Mulliken charges:
               1
     1  C    0.563929
     2  O   -0.390757
     3  O   -0.437456
     4  H    0.261136
     5  C   -0.118169
     6  N   -0.378790
     7  H    0.096034
     8  H    0.096034
     9  H    0.154020
    10  H    0.154020
 Sum of Mulliken charges =  -0.00000

 Dipole moment (field-independent basis, Debye):
    X=              3.0218    Y=             -1.5844    Z=             -0.0000  Tot=              3.4120
 Quadrupole moment (field-independent basis, Debye-Ang):
   XX=            -26.5213   YY=            -38.7947   ZZ=            -27.1631
   XY=              3.9788   XZ=             -0.0000   YZ=              0.0000

 Normal termination of Gaussian 16 at Fri Jan 15 14:11:00 2021.
