 Gaussian 16, Revision C.01,
 Gaussian 16:  AM64L-G16RevC.01  3-Jul-2019

 --------------
 #p MP2 cc-pVQZ
 --------------

 --------------------------
 start best geom PCCP paper
 --------------------------
 Symbolic Z-matrix:
 Charge =  0 Multiplicity = 1

                         Standard orientation:
 ---------------------------------------------------------------------
 Center     Atomic      Atomic             Coordinates (Angstroms)
 Number     Number       Type             X           Y           Z
 ---------------------------------------------------------------------
      1          6           0        0.000000    0.549747    0.000000
      2          8           0        0.985218    1.470653    0.000000
      3          8           0       -1.167485    0.837818    0.000000
      4          1           0        0.562653    2.338326    0.000000
      5          6           0        0.564972   -0.854997    0.000000
      6          7           0       -0.413127   -1.914567    0.000000
      7          1           0        1.214211   -0.944801    0.871558
      8          1           0        1.214211   -0.944801   -0.871558
      9          1           0       -1.015438   -1.841513    0.808581
     10          1           0       -1.015438   -1.841513   -0.808581
 ---------------------------------------------------------------------

 SCF Done:  E(RHF) =  -282.969535363     A.U. after   13 cycles
 E2 =    -0.1082128897D+01 EUMP2 =    -0.28405166426026D+03

 The electronic state is 1-A'.
 Alpha  occ. eigenvalues --  -20.61525 -20.55267 -15.54936 -11.38502 -11.27642
 Alpha  occ. eigenvalues --   -1.47231  -1.36904  -1.19810  -0.97999  -0.81802
 Alpha  occ. eigenvalues --   -0.71132  -0.70092  -0.69767  -0.63176  -0.60417
 Alpha  occ. eigenvalues --   -0.58857  -0.53715  -0.49138  -0.46865  -0.41234
 Alpha virt. eigenvalues --    0.11081   0.12879   0.14984   0.15392   0.17288
 Alpha virt. eigenvalues --    0.21981   0.24385   0.27314   0.29168   0.33639
 Alpha virt. eigenvalues --    0.34615   0.37409   0.38939   0.40707   0.42732

 Mulliken charges:
               1
     1  C    0.571159
     2  O   -0.419236
     3  O   -0.476724
     4  H    0.271826
     5  C   -0.095716
     6  N   -0.380758
     7  H    0.114745
     8  H    0.114745
     9  H    0.149979
    10  H    0.149979
 Sum of Mulliken charges =  -0.00000

 Dipole moment (field-independent basis, Debye):
    X=              1.0467    Y=              0.6968    Z=             -0.0000  Tot=              1.2574
 Quadrupole moment (field-independent basis, Debye-Ang):
   XX=            -32.9731   YY=            -29.9887   ZZ=            -27.1736
   XY=              2.7963   XZ=             -0.0000   YZ=              0.0000

 Normal termination of Gaussian 16 at Fri Jan 15 14:13:43 2021.
