 Gaussian 16, Revision C.01,
 Gaussian 16:  ES64L-G16RevC.01  3-Jul-2019

 --------------
 #p MP2 cc-pVQZ
 --------------

 ------
 VII_SP
 ------
 Symbolic Z-matrix:
 Charge =  0 Multiplicity = 1

                         Standard orientation:
 ---------------------------------------------------------------------
 Center     Atomic      Atomic             Coordinates (Angstroms)
 Number     Number       Type             X           Y           Z
 ---------------------------------------------------------------------
      1          6           0        0.000000    0.678907    0.000000
      2          8           0       -1.337854    0.533471    0.000000
      3          8           0        0.506518    1.764722    0.000000
      4          1           0       -1.547449   -0.408206   -0.000000
      5          6           0        0.827086   -0.604884   -0.000000
      6          7           0        0.142184   -1.872117   -0.000000
      7          1           0        1.477562   -0.542869    0.871458
      8          1           0        1.477562   -0.542869   -0.871458
      9          1           0       -0.357397   -2.115457    0.838184
     10          1           0       -0.357397   -2.115457   -0.838184
 ---------------------------------------------------------------------

 SCF Done:  E(RHF) =  -282.957478902     A.U. after   13 cycles
 E2 =    -0.1084847777D+01 EUMP2 =    -0.28404232667944D+03

 The electronic state is 1-A'.
 Alpha  occ. eigenvalues --  -20.61190 -20.53732 -15.57656 -11.37903 -11.28871
 Alpha  occ. eigenvalues --   -1.46347  -1.36461  -1.21887  -0.97809  -0.82986
 Alpha  occ. eigenvalues --   -0.74345  -0.72521  -0.67038  -0.63446  -0.62209
 Alpha  occ. eigenvalues --   -0.56925  -0.55939  -0.48510  -0.47500  -0.40803
 Alpha virt. eigenvalues --    0.08753   0.13243   0.13528   0.15997   0.16878
 Alpha virt. eigenvalues --    0.21697   0.23922   0.26550   0.29972   0.33905
 Alpha virt. eigenvalues --    0.35726   0.37161   0.37705   0.40124   0.40508

 Mulliken charges:
               1
     1  C    0.546209
     2  O   -0.403330
     3  O   -0.438693
     4  H    0.259114
     5  C   -0.088753
     6  N   -0.372714
     7  H    0.114359
     8  H    0.114359
     9  H    0.134725
    10  H    0.134725
 Sum of Mulliken charges =  -0.00000

 Dipole moment (field-independent basis, Debye):
    X=             -0.9929    Y=             -4.5729    Z=             -0.0000  Tot=              4.6795
 Quadrupole moment (field-independent basis, Debye-Ang):
   XX=            -29.7469   YY=            -37.3803   ZZ=            -26.8234
   XY=              3.1318   XZ=             -0.0000   YZ=              0.0000

 Normal termination of Gaussian 16 at Fri Jan 15 18:07:12 2021.
