 Gaussian 16, Revision C.01,
 Gaussian 16:  ES64L-G16RevC.01  3-Jul-2019

 --------------
 #p MP2 cc-pVQZ
 --------------

 -------
 VIII_SP
 -------
 Symbolic Z-matrix:
 Charge =  0 Multiplicity = 1

                         Standard orientation:
 ---------------------------------------------------------------------
 Center     Atomic      Atomic             Coordinates (Angstroms)
 Number     Number       Type             X           Y           Z
 ---------------------------------------------------------------------
      1          6           0        0.546143    0.148212    0.012628
      2          8           0        1.729714   -0.499968   -0.044362
      3          8           0        0.511357    1.343991    0.036745
      4          1           0        1.592593   -1.450896   -0.085742
      5          6           0       -0.679769   -0.738038    0.076616
      6          7           0       -1.874850    0.037759   -0.172157
      7          1           0       -0.657798   -1.217003    1.063110
      8          1           0       -0.576213   -1.530916   -0.669685
      9          1           0       -2.658726   -0.288884    0.371019
     10          1           0       -1.702724    1.010149    0.051861
 ---------------------------------------------------------------------

 SCF Done:  E(RHF) =  -282.957786150     A.U. after   12 cycles
 E2 =    -0.1084007691D+01 EUMP2 =    -0.28404179384185D+03

 The electronic state is 1-A.
 Alpha  occ. eigenvalues --  -20.61790 -20.54936 -15.55026 -11.38928 -11.28839
 Alpha  occ. eigenvalues --   -1.47036  -1.37469  -1.19993  -0.97659  -0.83554
 Alpha  occ. eigenvalues --   -0.74498  -0.68098  -0.67288  -0.65438  -0.60159
 Alpha  occ. eigenvalues --   -0.58348  -0.56354  -0.48915  -0.45983  -0.41004
 Alpha virt. eigenvalues --    0.09169   0.11745   0.15050   0.16988   0.18616
 Alpha virt. eigenvalues --    0.19162   0.23867   0.26745   0.28624   0.33650
 Alpha virt. eigenvalues --    0.35059   0.36667   0.37607   0.42110   0.42626

 Mulliken charges:
               1
     1  C    0.573045
     2  O   -0.387247
     3  O   -0.437513
     4  H    0.261641
     5  C   -0.014294
     6  N   -0.416797
     7  H    0.050690
     8  H    0.042568
     9  H    0.141929
    10  H    0.185976
 Sum of Mulliken charges =  -0.00000

 Dipole moment (field-independent basis, Debye):
    X=             -1.2887    Y=             -4.1429    Z=              1.2761  Tot=              4.5225
 Quadrupole moment (field-independent basis, Debye-Ang):
   XX=            -31.1372   YY=            -28.5345   ZZ=            -30.1289
   XY=             -3.6055   XZ=             -3.5231   YZ=              0.0329

 Normal termination of Gaussian 16 at Fri Jan 15 10:45:40 2021.
