 Gaussian 16, Revision C.01,
 Gaussian 16:  ES64L-G16RevC.01  3-Jul-2019

 ----------------------
 #p ccsd(t)/jun-cc-pvtz
 ----------------------

 --
 SP
 --
 Symbolic Z-matrix:
 Charge =  0 Multiplicity = 1

                         Standard orientation:
 ---------------------------------------------------------------------
 Center     Atomic      Atomic             Coordinates (Angstroms)
 Number     Number       Type             X           Y           Z
 ---------------------------------------------------------------------
      1          6           0        0.282827   -0.796188    0.000000
      2          6           0       -1.027688   -1.557043    0.000000
      3          7           0       -0.905049   -2.904009    0.000000
      4          1           0       -0.008267   -3.351065    0.000000
      5          1           0       -1.737511   -3.464326    0.000000
      6          8           0       -2.105544   -0.990257    0.000000
      7          7           0        0.000000    0.610806    0.000000
      8          6           0        1.006282    1.514438    0.000000
      9          8           0        2.177919    1.162660    0.000000
     10          1           0       -0.971077    0.878473    0.000000
     11          6           0        0.597778    2.964559    0.000000
     12          1           0       -0.481679    3.098489    0.000000
     13          1           0        1.022934    3.442286    0.879869
     14          1           0        1.022934    3.442286   -0.879869
     15          1           0        0.876911   -1.063776   -0.877284
     16          1           0        0.876911   -1.063776    0.877284
 ---------------------------------------------------------------------

 SCF Done:  E(RHF) =  -414.957985091     A.U. after   13 cycles
 E2 =    -0.1540724175D+01 EUMP2 =    -0.41649870926555D+03
 CCSD(T)
 CCSD(T)= -0.41659870784D+03

 The electronic state is 1-A'.
 Alpha  occ. eigenvalues --  -20.53981 -20.51268 -15.60158 -15.58480 -11.37114
 Alpha  occ. eigenvalues --  -11.34690 -11.28566 -11.23363  -1.40619  -1.37832
 Alpha  occ. eigenvalues --   -1.23781  -1.23302  -1.03301  -0.96984  -0.82218
 Alpha  occ. eigenvalues --   -0.79938  -0.75318  -0.69234  -0.66774  -0.66649
 Alpha  occ. eigenvalues --   -0.65001  -0.60660  -0.59847  -0.57191  -0.56042
 Alpha  occ. eigenvalues --   -0.55595  -0.50230  -0.45075  -0.43685  -0.42251
 Alpha  occ. eigenvalues --   -0.39530
 Alpha virt. eigenvalues --    0.04115   0.04801   0.06160   0.06827   0.07561
 Alpha virt. eigenvalues --    0.08615   0.09069   0.09923   0.10691   0.10953
 Alpha virt. eigenvalues --    0.12008   0.13019   0.13582   0.14916   0.15476

 Mulliken charges:
               1
     1  C   -0.334610
     2  C    0.386110
     3  N   -0.244799
     4  H    0.193683
     5  H    0.184563
     6  O   -0.563787
     7  N    0.040747
     8  C    0.143046
     9  O   -0.586668
    10  H    0.182781
    11  C   -0.486421
    12  H    0.172942
    13  H    0.219863
    14  H    0.219863
    15  H    0.236342
    16  H    0.236342
 Sum of Mulliken charges =   0.00000

 Dipole moment (field-independent basis, Debye):
    X=             -1.0473    Y=             -2.3106    Z=             -0.0000  Tot=              2.5368
 Quadrupole moment (field-independent basis, Debye-Ang):
   XX=            -64.2651   YY=            -28.8813   ZZ=            -47.8938
   XY=             -4.1858   XZ=             -0.0000   YZ=              0.0000

 1\1\GINC-CU39\SP\RCCSD(T)-FC\Jun-CC-pVTZ\C4H8N2O2\ROOT\09-Jan-2021\0\\
 #p ccsd(t)/jun-cc-pvtz\\SP\\0,1\C,0,0.,0.,0.\C,0,0.,0.,1.5153717\N,0,1
 .22645171,0.,2.08561166\H,0,2.06333899,0.,1.53452398\H,0,1.2930503,0.,
 3.0868667\O,0,-1.03134652,0.,2.16293882\N,0,-1.35879372,0.,-0.46184612
 \C,0,-1.63502314,0.,-1.78579934\O,0,-0.74253159,0.,-2.62242355\H,0,-2.
 07784583,0.,0.24356157\C,0,-3.09421459,0.,-2.1606124\H,0,-3.75202502,0
 .,-1.29432707\H,0,-3.29389342,0.87986854,-2.76815589\H,0,-3.29389342,-
 0.87986854,-2.76815589\H,0,0.52969825,-0.87728376,-0.37941831\H,0,0.52

 =-416.5149186\MP4SDQ=-416.5330822\CCSD=-416.5282901\CCSD(T)=-416.59870
 Normal termination of Gaussian 16 at Sat Jan  9 02:33:22 2021.
