 Gaussian 16, Revision C.01,
 Gaussian 16:  AM64L-G16RevC.01  3-Jul-2019

 -----------------
 #p HF/jun-cc-pv5z
 -----------------

 --
 SP
 --
 Symbolic Z-matrix:
 Charge =  0 Multiplicity = 1

                         Standard orientation:
 ---------------------------------------------------------------------
 Center     Atomic      Atomic             Coordinates (Angstroms)
 Number     Number       Type             X           Y           Z
 ---------------------------------------------------------------------
      1          6           0        0.282827   -0.796188    0.000000
      2          6           0       -1.027688   -1.557043    0.000000
      3          7           0       -0.905049   -2.904009    0.000000
      4          1           0       -0.008267   -3.351065    0.000000
      5          1           0       -1.737511   -3.464326    0.000000
      6          8           0       -2.105544   -0.990257    0.000000
      7          7           0        0.000000    0.610806    0.000000
      8          6           0        1.006282    1.514438    0.000000
      9          8           0        2.177919    1.162660    0.000000
     10          1           0       -0.971077    0.878473    0.000000
     11          6           0        0.597778    2.964559    0.000000
     12          1           0       -0.481679    3.098489    0.000000
     13          1           0        1.022934    3.442286    0.879869
     14          1           0        1.022934    3.442286   -0.879869
     15          1           0        0.876911   -1.063776   -0.877284
     16          1           0        0.876911   -1.063776    0.877284
 ---------------------------------------------------------------------

 SCF Done:  E(RHF) =  -414.990799848     A.U. after   12 cycles

 The electronic state is 1-A'.
 Alpha  occ. eigenvalues --  -20.53629 -20.50922 -15.59927 -15.58214 -11.36955
 Alpha  occ. eigenvalues --  -11.34539 -11.28431 -11.23242  -1.40503  -1.37723
 Alpha  occ. eigenvalues --   -1.23703  -1.23235  -1.03261  -0.96952  -0.82192
 Alpha  occ. eigenvalues --   -0.79922  -0.75314  -0.69226  -0.66771  -0.66654
 Alpha  occ. eigenvalues --   -0.64999  -0.60668  -0.59849  -0.57198  -0.56053
 Alpha  occ. eigenvalues --   -0.55609  -0.50245  -0.45081  -0.43703  -0.42269
 Alpha  occ. eigenvalues --   -0.39553
 Alpha virt. eigenvalues --    0.02692   0.03537   0.04355   0.04647   0.05527
 Alpha virt. eigenvalues --    0.06207   0.06385   0.07340   0.07769   0.07794
 Alpha virt. eigenvalues --    0.08629   0.09332   0.09546   0.10727   0.11487

 Mulliken charges:
               1
     1  C    0.035229
     2  C    0.552414
     3  N   -0.714876
     4  H    0.349405
     5  H    0.353936
     6  O   -0.632223
     7  N   -0.416818
     8  C    0.431186
     9  O   -0.640091
    10  H    0.372006
    11  C   -0.223052
    12  H    0.064359
    13  H    0.108522
    14  H    0.108522
    15  H    0.125741
    16  H    0.125741
 Sum of Mulliken charges =  -0.00000

 Dipole moment (field-independent basis, Debye):
    X=             -1.0448    Y=             -2.3085    Z=             -0.0000  Tot=              2.5339
 Quadrupole moment (field-independent basis, Debye-Ang):
   XX=            -64.1849   YY=            -28.8727   ZZ=            -47.8663
   XY=             -4.1906   XZ=              0.0000   YZ=              0.0000

 Normal termination of Gaussian 16 at Thu Jan 28 22:04:38 2021.
