 Gaussian 16, Revision C.01,
 Gaussian 16:  ES64L-G16RevC.01  3-Jul-2019

 ------------------
 #p MP2/jun-cc-pvqz
 ------------------

 --
 SP
 --
 Symbolic Z-matrix:
 Charge =  0 Multiplicity = 1

                         Standard orientation:
 ---------------------------------------------------------------------
 Center     Atomic      Atomic             Coordinates (Angstroms)
 Number     Number       Type             X           Y           Z
 ---------------------------------------------------------------------
      1          6           0        0.282827   -0.796188    0.000000
      2          6           0       -1.027688   -1.557043    0.000000
      3          7           0       -0.905049   -2.904009    0.000000
      4          1           0       -0.008267   -3.351065    0.000000
      5          1           0       -1.737511   -3.464326    0.000000
      6          8           0       -2.105544   -0.990257    0.000000
      7          7           0        0.000000    0.610806    0.000000
      8          6           0        1.006282    1.514438    0.000000
      9          8           0        2.177919    1.162660    0.000000
     10          1           0       -0.971077    0.878473    0.000000
     11          6           0        0.597778    2.964559    0.000000
     12          1           0       -0.481679    3.098489    0.000000
     13          1           0        1.022934    3.442286    0.879869
     14          1           0        1.022934    3.442286   -0.879869
     15          1           0        0.876911   -1.063776   -0.877284
     16          1           0        0.876911   -1.063776    0.877284
 ---------------------------------------------------------------------

 SCF Done:  E(RHF) =  -414.984791546     A.U. after   12 cycles
 E2 =    -0.1643466866D+01 EUMP2 =    -0.41662825841165D+03

 The electronic state is 1-A'.
 Alpha  occ. eigenvalues --  -20.53701 -20.50994 -15.59965 -15.58255 -11.36981
 Alpha  occ. eigenvalues --  -11.34566 -11.28453 -11.23262  -1.40526  -1.37745
 Alpha  occ. eigenvalues --   -1.23719  -1.23249  -1.03270  -0.96960  -0.82197
 Alpha  occ. eigenvalues --   -0.79925  -0.75314  -0.69228  -0.66771  -0.66652
 Alpha  occ. eigenvalues --   -0.65000  -0.60667  -0.59848  -0.57196  -0.56051
 Alpha  occ. eigenvalues --   -0.55606  -0.50242  -0.45078  -0.43700  -0.42264
 Alpha  occ. eigenvalues --   -0.39549
 Alpha virt. eigenvalues --    0.03381   0.04115   0.05209   0.05780   0.06523
 Alpha virt. eigenvalues --    0.07313   0.07652   0.08542   0.09190   0.09403
 Alpha virt. eigenvalues --    0.10302   0.11100   0.11563   0.12730   0.13462

 Mulliken charges:
               1
     1  C   -0.332377
     2  C    0.696784
     3  N   -0.668612
     4  H    0.240482
     5  H    0.248902
     6  O   -0.725927
     7  N   -0.199990
     8  C    0.664081
     9  O   -0.717948
    10  H    0.242624
    11  C   -0.600027
    12  H    0.173453
    13  H    0.228363
    14  H    0.228363
    15  H    0.260914
    16  H    0.260914
 Sum of Mulliken charges =  -0.00000

 Dipole moment (field-independent basis, Debye):
    X=             -1.0455    Y=             -2.3085    Z=              0.0000  Tot=              2.5342
 Quadrupole moment (field-independent basis, Debye-Ang):
   XX=            -64.1947   YY=            -28.8774   ZZ=            -47.8754
   XY=             -4.1916   XZ=             -0.0000   YZ=              0.0000

 Normal termination of Gaussian 16 at Fri Jan  8 21:06:27 2021.
