 Gaussian 16, Revision C.01,
 Gaussian 16:  ES64L-G16RevC.01  3-Jul-2019

 ----------------------
 #p ccsd(t)/jun-cc-pvtz
 ----------------------

 --
 SP
 --
 Symbolic Z-matrix:
 Charge =  0 Multiplicity = 1

                         Standard orientation:
 ---------------------------------------------------------------------
 Center     Atomic      Atomic             Coordinates (Angstroms)
 Number     Number       Type             X           Y           Z
 ---------------------------------------------------------------------
      1          6           0        0.701219   -0.783335    0.755990
      2          6           0        1.725702   -0.000592   -0.061003
      3          7           0        1.388546    1.285127   -0.292560
      4          1           0        0.520546    1.655563    0.064487
      5          1           0        2.019367    1.856102   -0.824481
      6          8           0        2.754081   -0.517926   -0.458583
      7          7           0       -0.572151   -0.931257    0.078689
      8          6           0       -1.511384    0.041617    0.089899
      9          8           0       -1.328240    1.101504    0.677624
     10          1           0       -0.759472   -1.784736   -0.413587
     11          6           0       -2.785771   -0.248570   -0.655048
     12          1           0       -3.623642   -0.077479    0.016166
     13          1           0       -2.829370   -1.263780   -1.042597
     14          1           0       -2.867922    0.454505   -1.481446
     15          1           0        0.537913   -0.266976    1.702147
     16          1           0        1.102489   -1.773630    0.945059
 ---------------------------------------------------------------------

 SCF Done:  E(RHF) =  -414.956233518     A.U. after   13 cycles
 E2 =    -0.1544054566D+01 EUMP2 =    -0.41650028808389D+03
 CCSD(T)
 CCSD(T)= -0.41660029704D+03

 The electronic state is 1-A.
 Alpha  occ. eigenvalues --  -20.53514 -20.51786 -15.61042 -15.57213 -11.37017
 Alpha  occ. eigenvalues --  -11.34754 -11.28441 -11.25168  -1.40389  -1.37939
 Alpha  occ. eigenvalues --   -1.25729  -1.20661  -1.04405  -0.97493  -0.82849
 Alpha  occ. eigenvalues --   -0.79009  -0.73367  -0.72029  -0.68007  -0.66470
 Alpha  occ. eigenvalues --   -0.62796  -0.60357  -0.59794  -0.58594  -0.56555
 Alpha  occ. eigenvalues --   -0.54124  -0.53689  -0.45255  -0.44314  -0.40774
 Alpha  occ. eigenvalues --   -0.40048
 Alpha virt. eigenvalues --    0.03472   0.05084   0.06041   0.06347   0.07614
 Alpha virt. eigenvalues --    0.07859   0.08790   0.09616   0.10298   0.11206
 Alpha virt. eigenvalues --    0.11793   0.12356   0.13891   0.14501   0.15592

 Mulliken charges:
               1
     1  C   -0.235607
     2  C    0.302698
     3  N   -0.250775
     4  H    0.247746
     5  H    0.169099
     6  O   -0.548365
     7  N   -0.090373
     8  C    0.317659
     9  O   -0.636792
    10  H    0.137860
    11  C   -0.477508
    12  H    0.221718
    13  H    0.168458
    14  H    0.220709
    15  H    0.229918
    16  H    0.223553
 Sum of Mulliken charges =  -0.00000

 Dipole moment (field-independent basis, Debye):
    X=             -3.8651    Y=             -1.3972    Z=             -0.7144  Tot=              4.1715
 Quadrupole moment (field-independent basis, Debye-Ang):
   XX=            -56.2678   YY=            -44.2640   ZZ=            -47.6311
   XY=              9.5409   XZ=              6.0277   YZ=             -3.5941

 1\1\GINC-CU39\SP\RCCSD(T)-FC\Jun-CC-pVTZ\C4H8N2O2\ROOT\09-Jan-2021\0\\
 #p ccsd(t)/jun-cc-pvtz\\SP\\0,1\C,0,0.,0.,0.\C,0,0.,0.,1.5263449\N,0,1
 .22887295,0.,2.08333389\H,0,2.05189728,0.,1.499586\H,0,1.29974412,0.,3
 .0842655\O,0,-1.03756181,0.,2.16410265\N,0,0.57967471,-1.20142843,-0.5
 680101\C,0,1.91545247,-1.361296,-0.70551314\O,0,2.70388858,-0.49130926
 ,-0.35364079\H,0,-0.03319475,-1.93647512,-0.86792596\C,0,2.37627299,-2
 .65910243,-1.3109538\H,0,3.03665376,-2.43480201,-2.14486896\H,0,1.5543
 0241,-3.28347578,-1.65339974\H,0,2.9512091,-3.20160838,-0.56320325\H,0

 340186\CCSD=-416.5291528\CCSD(T)=-416.600297\RMSD=6.365e-09\PG=C01 [X(
 Normal termination of Gaussian 16 at Sat Jan  9 07:48:58 2021.
