 Gaussian 16, Revision C.01,
 Gaussian 16:  AM64L-G16RevC.01  3-Jul-2019

 -----------------
 #p HF/jun-cc-pv5z
 -----------------

 --
 SP
 --
 Symbolic Z-matrix:
 Charge =  0 Multiplicity = 1

                         Standard orientation:
 ---------------------------------------------------------------------
 Center     Atomic      Atomic             Coordinates (Angstroms)
 Number     Number       Type             X           Y           Z
 ---------------------------------------------------------------------
      1          6           0        0.701219   -0.783335    0.755990
      2          6           0        1.725702   -0.000592   -0.061003
      3          7           0        1.388546    1.285127   -0.292560
      4          1           0        0.520546    1.655563    0.064487
      5          1           0        2.019366    1.856102   -0.824481
      6          8           0        2.754081   -0.517926   -0.458583
      7          7           0       -0.572151   -0.931257    0.078689
      8          6           0       -1.511384    0.041617    0.089899
      9          8           0       -1.328240    1.101504    0.677624
     10          1           0       -0.759472   -1.784736   -0.413587
     11          6           0       -2.785771   -0.248570   -0.655048
     12          1           0       -3.623642   -0.077479    0.016166
     13          1           0       -2.829370   -1.263780   -1.042597
     14          1           0       -2.867922    0.454505   -1.481446
     15          1           0        0.537913   -0.266976    1.702147
     16          1           0        1.102489   -1.773630    0.945059
 ---------------------------------------------------------------------

 SCF Done:  E(RHF) =  -414.989041530     A.U. after   12 cycles

 The electronic state is 1-A.
 Alpha  occ. eigenvalues --  -20.53170 -20.51436 -15.60783 -15.56981 -11.36871
 Alpha  occ. eigenvalues --  -11.34594 -11.28306 -11.25048  -1.40283  -1.37823
 Alpha  occ. eigenvalues --   -1.25655  -1.20592  -1.04369  -0.97461  -0.82825
 Alpha  occ. eigenvalues --   -0.78988  -0.73364  -0.72026  -0.68010  -0.66469
 Alpha  occ. eigenvalues --   -0.62804  -0.60363  -0.59799  -0.58603  -0.56569
 Alpha  occ. eigenvalues --   -0.54131  -0.53704  -0.45276  -0.44330  -0.40790
 Alpha  occ. eigenvalues --   -0.40068
 Alpha virt. eigenvalues --    0.02243   0.03578   0.04115   0.04319   0.05571
 Alpha virt. eigenvalues --    0.05681   0.06249   0.06771   0.07256   0.08203
 Alpha virt. eigenvalues --    0.08570   0.09060   0.10205   0.10491   0.11698

 Mulliken charges:
               1
     1  C   -0.086071
     2  C    0.568940
     3  N   -0.729726
     4  H    0.403215
     5  H    0.328920
     6  O   -0.621829
     7  N   -0.333245
     8  C    0.465457
     9  O   -0.652041
    10  H    0.317676
    11  C   -0.284872
    12  H    0.125798
    13  H    0.072791
    14  H    0.120993
    15  H    0.148977
    16  H    0.155017
 Sum of Mulliken charges =  -0.00000

 Dipole moment (field-independent basis, Debye):
    X=             -3.8630    Y=             -1.3947    Z=             -0.7154  Tot=              4.1689
 Quadrupole moment (field-independent basis, Debye-Ang):
   XX=            -56.2222   YY=            -44.2221   ZZ=            -47.5997
   XY=              9.5268   XZ=              6.0143   YZ=             -3.5830

 Normal termination of Gaussian 16 at Fri Jan 29 01:20:49 2021.
