 Gaussian 16, Revision C.01,
 Gaussian 16:  ES64L-G16RevC.01  3-Jul-2019

 ------------------
 #p MP2/jun-cc-pvqz
 ------------------

 --
 SP
 --
 Symbolic Z-matrix:
 Charge =  0 Multiplicity = 1

                         Standard orientation:
 ---------------------------------------------------------------------
 Center     Atomic      Atomic             Coordinates (Angstroms)
 Number     Number       Type             X           Y           Z
 ---------------------------------------------------------------------
      1          6           0        0.701219   -0.783335    0.755990
      2          6           0        1.725702   -0.000592   -0.061003
      3          7           0        1.388546    1.285127   -0.292560
      4          1           0        0.520546    1.655563    0.064487
      5          1           0        2.019367    1.856102   -0.824481
      6          8           0        2.754081   -0.517926   -0.458583
      7          7           0       -0.572151   -0.931257    0.078689
      8          6           0       -1.511384    0.041617    0.089899
      9          8           0       -1.328240    1.101504    0.677624
     10          1           0       -0.759472   -1.784736   -0.413587
     11          6           0       -2.785771   -0.248570   -0.655048
     12          1           0       -3.623642   -0.077479    0.016166
     13          1           0       -2.829370   -1.263780   -1.042597
     14          1           0       -2.867922    0.454505   -1.481446
     15          1           0        0.537913   -0.266976    1.702147
     16          1           0        1.102489   -1.773630    0.945059
 ---------------------------------------------------------------------

 SCF Done:  E(RHF) =  -414.983030366     A.U. after   12 cycles
 E2 =    -0.1646667421D+01 EUMP2 =    -0.41662969778668D+03

 The electronic state is 1-A.
 Alpha  occ. eigenvalues --  -20.53243 -20.51509 -15.60823 -15.57018 -11.36897
 Alpha  occ. eigenvalues --  -11.34619 -11.28328 -11.25067  -1.40305  -1.37847
 Alpha  occ. eigenvalues --   -1.25670  -1.20606  -1.04378  -0.97468  -0.82830
 Alpha  occ. eigenvalues --   -0.78992  -0.73364  -0.72027  -0.68010  -0.66469
 Alpha  occ. eigenvalues --   -0.62803  -0.60362  -0.59798  -0.58600  -0.56566
 Alpha  occ. eigenvalues --   -0.54129  -0.53701  -0.45272  -0.44326  -0.40787
 Alpha  occ. eigenvalues --   -0.40064
 Alpha virt. eigenvalues --    0.02827   0.04320   0.05072   0.05325   0.06545
 Alpha virt. eigenvalues --    0.06746   0.07489   0.08191   0.08823   0.09701
 Alpha virt. eigenvalues --    0.10181   0.10713   0.12158   0.12406   0.13829

 Mulliken charges:
               1
     1  C   -0.257458
     2  C    0.755358
     3  N   -0.643780
     4  H    0.311823
     5  H    0.225518
     6  O   -0.743242
     7  N   -0.320585
     8  C    0.686502
     9  O   -0.730572
    10  H    0.200194
    11  C   -0.610318
    12  H    0.228809
    13  H    0.169625
    14  H    0.213427
    15  H    0.250256
    16  H    0.264442
 Sum of Mulliken charges =  -0.00000

 Dipole moment (field-independent basis, Debye):
    X=             -3.8631    Y=             -1.3949    Z=             -0.7154  Tot=              4.1691
 Quadrupole moment (field-independent basis, Debye-Ang):
   XX=            -56.2280   YY=            -44.2299   ZZ=            -47.6079
   XY=              9.5278   XZ=              6.0163   YZ=             -3.5827

 Normal termination of Gaussian 16 at Fri Jan  8 20:28:12 2021.
