 Gaussian 09, Revision E.01,
 Gaussian 09:  ES64L-G09RevE.01 30-Nov-2015

 ------------------
 #P CCSD(T) cc-pVTZ
 ------------------

 --------------------------
 start best geom PCCP paper
 --------------------------
 Symbolic Z-matrix:
 Charge =  0 Multiplicity = 1

                         Standard orientation:
 ---------------------------------------------------------------------
 Center     Atomic      Atomic             Coordinates (Angstroms)
 Number     Number       Type             X           Y           Z
 ---------------------------------------------------------------------
      1          7           0       -1.777783    0.124928   -0.048772
      2          1           0       -2.176227    0.113925   -0.975812
      3          6           0       -0.642823   -0.786994    0.071611
      4          6           0        0.686110   -0.041625    0.003814
      5          1           0       -0.662886   -1.287754    1.038553
      6          1           0       -0.617441   -1.563047   -0.691946
      7          8           0        1.742553   -0.607441   -0.059578
      8          8           0        0.574514    1.288852    0.038515
      9          1           0       -2.512293   -0.090938    0.606942
     10          1           0       -0.382931    1.473747    0.079614
 ---------------------------------------------------------------------

 SCF Done:  E(RHF) =  -282.943149605     A.U. after   13 cycles
 E2 =    -0.1012805383D+01 EUMP2 =    -0.28395595498810D+03
 CCSD(T)
 CCSD(T)= -0.28401674134D+03

 The electronic state is 1-A.
 Alpha  occ. eigenvalues --  -20.59309 -20.52868 -15.58528 -11.37091 -11.28867
 Alpha  occ. eigenvalues --   -1.45092  -1.35329  -1.22210  -0.97734  -0.80892
 Alpha  occ. eigenvalues --   -0.73468  -0.71248  -0.67475  -0.62513  -0.62038
 Alpha  occ. eigenvalues --   -0.55966  -0.55591  -0.47148  -0.46239  -0.42200
 Alpha virt. eigenvalues --    0.11124   0.15218   0.16742   0.19423   0.20744
 Alpha virt. eigenvalues --    0.24461   0.30426   0.32339   0.36113   0.42242
 Alpha virt. eigenvalues --    0.43790   0.45586   0.47967   0.49937   0.53390

 Mulliken charges:
               1
     1  N   -0.409055
     2  H    0.165014
     3  C   -0.103689
     4  C    0.389289
     5  H    0.119403
     6  H    0.121312
     7  O   -0.392784
     8  O   -0.315858
     9  H    0.169918
    10  H    0.256450
 Sum of Mulliken charges =  -0.00000

 Dipole moment (field-independent basis, Debye):
    X=             -5.8758    Y=             -0.7072    Z=             -0.0103  Tot=              5.9182
 Quadrupole moment (field-independent basis, Debye-Ang):
   XX=            -31.8586   YY=            -30.9769   ZZ=            -26.9321
   XY=              1.7389   XZ=              0.5532   YZ=             -0.4689

 7142\CCSD(T)=-284.0167413\RMSD=5.569e-09\PG=C01 [X(C2H5N1O2)]\\@
 Normal termination of Gaussian 09 at Sat Oct 15 14:31:19 2016.
