 Gaussian 09, Revision E.01,
 Gaussian 09:  ES64L-G09RevE.01 30-Nov-2015

 ------------------
 #P CCSD(T) cc-pVTZ
 ------------------

 --------------------------
 start best geom PCCP paper
 --------------------------
 Symbolic Z-matrix:
 Charge =  0 Multiplicity = 1

                         Standard orientation:
 ---------------------------------------------------------------------
 Center     Atomic      Atomic             Coordinates (Angstroms)
 Number     Number       Type             X           Y           Z
 ---------------------------------------------------------------------
      1          6           0        0.618518   -0.113452    0.015582
      2          8           0        0.629857    1.232314    0.102216
      3          8           0        1.611391   -0.762918   -0.179712
      4          1           0        1.543352    1.512541   -0.033863
      5          6           0       -0.754494   -0.683284    0.258311
      6          7           0       -1.797230    0.162725   -0.300561
      7          1           0       -0.825344   -0.835413    1.343137
      8          1           0       -0.780740   -1.661095   -0.214728
      9          1           0       -2.709920   -0.223225   -0.105836
     10          1           0       -1.760866    1.093359    0.091830
 ---------------------------------------------------------------------

 SCF Done:  E(RHF) =  -282.943264482     A.U. after   13 cycles
 E2 =    -0.1008843482D+01 EUMP2 =    -0.28395210796383D+03
 CCSD(T)
 CCSD(T)= -0.28401317397D+03

 The electronic state is 1-A.
 Alpha  occ. eigenvalues --  -20.61391 -20.54715 -15.55162 -11.38470 -11.27579
 Alpha  occ. eigenvalues --   -1.46958  -1.36419  -1.19685  -0.97617  -0.82630
 Alpha  occ. eigenvalues --   -0.71429  -0.68796  -0.66868  -0.64689  -0.59885
 Alpha  occ. eigenvalues --   -0.58251  -0.55668  -0.48695  -0.45754  -0.40513
 Alpha virt. eigenvalues --    0.12881   0.15777   0.17849   0.18149   0.20288
 Alpha virt. eigenvalues --    0.23328   0.31608   0.33543   0.35756   0.42586
 Alpha virt. eigenvalues --    0.46132   0.46366   0.47048   0.51457   0.53740

 Mulliken charges:
               1
     1  C    0.411782
     2  O   -0.341972
     3  O   -0.395910
     4  H    0.250944
     5  C   -0.062107
     6  N   -0.369389
     7  H    0.082772
     8  H    0.120185
     9  H    0.143848
    10  H    0.159846
 Sum of Mulliken charges =  -0.00000

 Dipole moment (field-independent basis, Debye):
    X=             -1.8579    Y=              1.1327    Z=              1.5711  Tot=              2.6839
 Quadrupole moment (field-independent basis, Debye-Ang):
   XX=            -28.1239   YY=            -28.4379   ZZ=            -30.7215
   XY=              6.0881   XZ=             -1.9000   YZ=             -0.2822

 Q=-283.9737712\CCSD=-283.9708681\CCSD(T)=-284.013174\RMSD=3.879e-09\PG
 Normal termination of Gaussian 09 at Fri Oct 14 22:10:20 2016.
