 Gaussian 09, Revision E.01,
 Gaussian 09:  ES64L-G09RevE.01 30-Nov-2015

 ------------------
 #P CCSD(T) cc-pVTZ
 ------------------

 --------------------------
 start best geom PCCP paper
 --------------------------
 Symbolic Z-matrix:
 Charge =  0 Multiplicity = 1

                         Standard orientation:
 ---------------------------------------------------------------------
 Center     Atomic      Atomic             Coordinates (Angstroms)
 Number     Number       Type             X           Y           Z
 ---------------------------------------------------------------------
      1          6           0        0.533710    0.102893    0.014867
      2          8           0        1.632185   -0.670799   -0.066880
      3          8           0        0.575034    1.304539    0.045254
      4          1           0        2.393950   -0.078239   -0.074783
      5          6           0       -0.719436   -0.723120    0.103930
      6          7           0       -1.876755    0.096522   -0.192365
      7          1           0       -0.714656   -1.160119    1.109923
      8          1           0       -0.636201   -1.548521   -0.602525
      9          1           0       -2.714348   -0.276671    0.227657
     10          1           0       -1.734852    1.039339    0.146516
 ---------------------------------------------------------------------

 SCF Done:  E(RHF) =  -282.945340763     A.U. after   13 cycles
 E2 =    -0.1009028852D+01 EUMP2 =    -0.28395436961476D+03
 CCSD(T)
 CCSD(T)= -0.28401534603D+03

 The electronic state is 1-A.
 Alpha  occ. eigenvalues --  -20.61608 -20.55220 -15.54313 -11.38781 -11.27497
 Alpha  occ. eigenvalues --   -1.47284  -1.36924  -1.19150  -0.98045  -0.81315
 Alpha  occ. eigenvalues --   -0.72052  -0.70907  -0.66967  -0.63077  -0.60106
 Alpha  occ. eigenvalues --   -0.57516  -0.56252  -0.48932  -0.45974  -0.40126
 Alpha virt. eigenvalues --    0.13528   0.15122   0.17356   0.18674   0.21861
 Alpha virt. eigenvalues --    0.22907   0.31812   0.33074   0.36523   0.41118
 Alpha virt. eigenvalues --    0.45275   0.48077   0.49410   0.50468   0.55959

 Mulliken charges:
               1
     1  C    0.415393
     2  O   -0.334575
     3  O   -0.402127
     4  H    0.250651
     5  C   -0.058688
     6  N   -0.371482
     7  H    0.086899
     8  H    0.104665
     9  H    0.142238
    10  H    0.167024
 Sum of Mulliken charges =  -0.00000

 Dipole moment (field-independent basis, Debye):
    X=              0.0949    Y=             -1.7347    Z=              1.3250  Tot=              2.1849
 Quadrupole moment (field-independent basis, Debye-Ang):
   XX=            -23.3467   YY=            -33.0311   ZZ=            -30.1723
   XY=              1.1786   XZ=             -3.3030   YZ=              0.1024

 =-283.9758744\CCSD=-283.9730113\CCSD(T)=-284.015346\RMSD=4.060e-09\PG=
 Normal termination of Gaussian 09 at Sat Oct 15 14:52:57 2016.
