 Gaussian 09, Revision E.01,
 Gaussian 09:  ES64L-G09RevE.01 30-Nov-2015

 ------------------
 #P CCSD(T) cc-pVTZ
 ------------------

 --------------------------
 start best geom PCCP paper
 --------------------------
 Symbolic Z-matrix:
 Charge =  0 Multiplicity = 1

                         Standard orientation:
 ---------------------------------------------------------------------
 Center     Atomic      Atomic             Coordinates (Angstroms)
 Number     Number       Type             X           Y           Z
 ---------------------------------------------------------------------
      1          6           0        0.000000    0.635900    0.000000
      2          8           0       -1.323949    0.381124    0.000000
      3          8           0        0.447609    1.752947    0.000000
      4          1           0       -1.766360    1.239435    0.000000
      5          6           0        0.856429   -0.616662   -0.000000
      6          7           0        0.200424   -1.903701   -0.000000
      7          1           0        1.506780   -0.534947    0.870775
      8          1           0        1.506780   -0.534947   -0.870775
      9          1           0       -0.389012   -2.015816   -0.812151
     10          1           0       -0.389012   -2.015816    0.812151
 ---------------------------------------------------------------------

 SCF Done:  E(RHF) =  -282.944907009     A.U. after   13 cycles
 E2 =    -0.1009112286D+01 EUMP2 =    -0.28395401929508D+03
 CCSD(T)
 CCSD(T)= -0.28401503179D+03

 The electronic state is 1-A'.
 Alpha  occ. eigenvalues --  -20.61772 -20.54689 -15.55197 -11.38416 -11.27629
 Alpha  occ. eigenvalues --   -1.47149  -1.36509  -1.19908  -0.97302  -0.83094
 Alpha  occ. eigenvalues --   -0.70812  -0.69844  -0.69224  -0.62948  -0.59592
 Alpha  occ. eigenvalues --   -0.58065  -0.54552  -0.48422  -0.48052  -0.40226
 Alpha virt. eigenvalues --    0.13101   0.16338   0.16474   0.17705   0.19019
 Alpha virt. eigenvalues --    0.25559   0.30977   0.34969   0.37391   0.43727
 Alpha virt. eigenvalues --    0.45465   0.45666   0.46717   0.48657   0.53554

 Mulliken charges:
               1
     1  C    0.393203
     2  O   -0.339772
     3  O   -0.402688
     4  H    0.251264
     5  C   -0.093117
     6  N   -0.352594
     7  H    0.125074
     8  H    0.125074
     9  H    0.146778
    10  H    0.146778
 Sum of Mulliken charges =  -0.00000

 Dipole moment (field-independent basis, Debye):
    X=             -1.7890    Y=             -1.0022    Z=             -0.0000  Tot=              2.0506
 Quadrupole moment (field-independent basis, Debye-Ang):
   XX=            -27.6439   YY=            -36.6716   ZZ=            -27.0151
   XY=             -2.2213   XZ=              0.0000   YZ=              0.0000

 =-283.9726086\CCSD(T)=-284.0150318\RMSD=4.433e-09\PG=CS [SG(C2H1N1O2),
 Normal termination of Gaussian 09 at Sat Oct 15 15:08:41 2016.
