 Gaussian 09, Revision E.01,
 Gaussian 09:  ES64L-G09RevE.01 30-Nov-2015

 ------------------
 #P CCSD(T) cc-pVTZ
 ------------------

 --------------------------
 start best geom PCCP paper
 --------------------------
 Symbolic Z-matrix:
 Charge =  0 Multiplicity = 1

                         Standard orientation:
 ---------------------------------------------------------------------
 Center     Atomic      Atomic             Coordinates (Angstroms)
 Number     Number       Type             X           Y           Z
 ---------------------------------------------------------------------
      1          6           0        0.000000    0.573396    0.000000
      2          8           0        0.957640    1.531040    0.000000
      3          8           0       -1.156728    0.877678    0.000000
      4          1           0        1.833849    1.134152    0.000000
      5          6           0        0.517981   -0.858483    0.000000
      6          7           0       -0.496418   -1.881566    0.000000
      7          1           0        1.159024   -0.981844    0.876153
      8          1           0        1.159024   -0.981844   -0.876153
      9          1           0       -1.096075   -1.779366    0.807682
     10          1           0       -1.096075   -1.779366   -0.807682
 ---------------------------------------------------------------------

 SCF Done:  E(RHF) =  -282.938816663     A.U. after   13 cycles
 E2 =    -0.1009714803D+01 EUMP2 =    -0.28394853146591D+03
 CCSD(T)
 CCSD(T)= -0.28400981856D+03

 The electronic state is 1-A'.
 Alpha  occ. eigenvalues --  -20.61533 -20.54701 -15.55514 -11.38287 -11.28843
 Alpha  occ. eigenvalues --   -1.46533  -1.36989  -1.20409  -0.97379  -0.83202
 Alpha  occ. eigenvalues --   -0.73640  -0.70332  -0.66960  -0.62902  -0.60501
 Alpha  occ. eigenvalues --   -0.58749  -0.54538  -0.48517  -0.46682  -0.41419
 Alpha virt. eigenvalues --    0.11626   0.14667   0.15957   0.19012   0.19567
 Alpha virt. eigenvalues --    0.24357   0.31871   0.33431   0.35182   0.40894
 Alpha virt. eigenvalues --    0.45412   0.46411   0.46445   0.50917   0.53589

 Mulliken charges:
               1
     1  C    0.386717
     2  O   -0.301059
     3  O   -0.368830
     4  H    0.229936
     5  C   -0.131926
     6  N   -0.349598
     7  H    0.115780
     8  H    0.115780
     9  H    0.151600
    10  H    0.151600
 Sum of Mulliken charges =  -0.00000

 Dipole moment (field-independent basis, Debye):
    X=              2.9988    Y=             -1.5888    Z=             -0.0000  Tot=              3.3936
 Quadrupole moment (field-independent basis, Debye-Ang):
   XX=            -26.3749   YY=            -38.5359   ZZ=            -27.0521
   XY=              3.9836   XZ=              0.0000   YZ=             -0.0000

 \CCSD=-283.9672977\CCSD(T)=-284.0098186\RMSD=4.325e-09\PG=CS [SG(C2H1N
 Normal termination of Gaussian 09 at Sat Oct 15 15:16:42 2016.
