 Gaussian 09, Revision E.01,
 Gaussian 09:  ES64L-G09RevE.01 30-Nov-2015

 ------------------
 #P CCSD(T) cc-pVTZ
 ------------------

 --------------------------
 start best geom PCCP paper
 --------------------------
 Symbolic Z-matrix:
 Charge =  0 Multiplicity = 1

                         Standard orientation:
 ---------------------------------------------------------------------
 Center     Atomic      Atomic             Coordinates (Angstroms)
 Number     Number       Type             X           Y           Z
 ---------------------------------------------------------------------
      1          6           0        0.000000    0.549747    0.000000
      2          8           0        0.985218    1.470653    0.000000
      3          8           0       -1.167485    0.837818    0.000000
      4          1           0        0.562653    2.338326    0.000000
      5          6           0        0.564972   -0.854997    0.000000
      6          7           0       -0.413127   -1.914567    0.000000
      7          1           0        1.214211   -0.944801    0.871558
      8          1           0        1.214211   -0.944801   -0.871558
      9          1           0       -1.015438   -1.841513    0.808581
     10          1           0       -1.015438   -1.841513   -0.808581
 ---------------------------------------------------------------------

 SCF Done:  E(RHF) =  -282.948131533     A.U. after   13 cycles
 E2 =    -0.1008514861D+01 EUMP2 =    -0.28395664639492D+03
 CCSD(T)
 CCSD(T)= -0.28401772997D+03

 The electronic state is 1-A'.
 Alpha  occ. eigenvalues --  -20.61478 -20.55192 -15.54798 -11.38373 -11.27575
 Alpha  occ. eigenvalues --   -1.47073  -1.36742  -1.19640  -0.97831  -0.81605
 Alpha  occ. eigenvalues --   -0.70918  -0.69883  -0.69573  -0.62969  -0.60195
 Alpha  occ. eigenvalues --   -0.58645  -0.53527  -0.48901  -0.46643  -0.41042
 Alpha virt. eigenvalues --    0.13761   0.15416   0.16694   0.18275   0.19448
 Alpha virt. eigenvalues --    0.25216   0.32434   0.33794   0.36183   0.41772
 Alpha virt. eigenvalues --    0.45346   0.46510   0.47102   0.50873   0.54252

 Mulliken charges:
               1
     1  C    0.397311
     2  O   -0.337888
     3  O   -0.397422
     4  H    0.249043
     5  C   -0.100881
     6  N   -0.353558
     7  H    0.123185
     8  H    0.123185
     9  H    0.148513
    10  H    0.148513
 Sum of Mulliken charges =  -0.00000

 Dipole moment (field-independent basis, Debye):
    X=              1.0135    Y=              0.6976    Z=              0.0000  Tot=              1.2303
 Quadrupole moment (field-independent basis, Debye-Ang):
   XX=            -32.8255   YY=            -29.7199   ZZ=            -27.0610
   XY=              2.7682   XZ=             -0.0000   YZ=             -0.0000

 8914\MP4DQ=-283.9673278\MP4SDQ=-283.9783136\CCSD=-283.9754268\CCSD(T)=
 Normal termination of Gaussian 09 at Sat Oct 15 15:24:47 2016.
