 Gaussian 09, Revision D.01,
 Gaussian 09:  ES64L-G09RevD.01 24-Apr-2013

 ------------------
 #P CCSD(T) cc-pVTZ
 ------------------

 ------
 VII_SP
 ------
 Symbolic Z-matrix:
 Charge =  0 Multiplicity = 1

                         Standard orientation:
 ---------------------------------------------------------------------
 Center     Atomic      Atomic             Coordinates (Angstroms)
 Number     Number       Type             X           Y           Z
 ---------------------------------------------------------------------
      1          6           0        0.000000    0.678907    0.000000
      2          8           0       -1.337854    0.533471    0.000000
      3          8           0        0.506518    1.764722    0.000000
      4          1           0       -1.547449   -0.408206    0.000000
      5          6           0        0.827086   -0.604884    0.000000
      6          7           0        0.142184   -1.872117    0.000000
      7          1           0        1.477562   -0.542869    0.871458
      8          1           0        1.477562   -0.542869   -0.871458
      9          1           0       -0.357397   -2.115457    0.838185
     10          1           0       -0.357397   -2.115457   -0.838185
 ---------------------------------------------------------------------

 SCF Done:  E(RHF) =  -282.935625764     A.U. after   13 cycles
 E2 =    -0.1011088295D+01 EUMP2 =    -0.28394671405857D+03
 CCSD(T)
 CCSD(T)= -0.28400758991D+03

 The electronic state is 1-A'.
 Alpha  occ. eigenvalues --  -20.61081 -20.53618 -15.57536 -11.37750 -11.28806
 Alpha  occ. eigenvalues --   -1.46153  -1.36267  -1.21723  -0.97647  -0.82749
 Alpha  occ. eigenvalues --   -0.74127  -0.72328  -0.66806  -0.63229  -0.61982
 Alpha  occ. eigenvalues --   -0.56686  -0.55746  -0.48294  -0.47237  -0.40590
 Alpha virt. eigenvalues --    0.11060   0.16036   0.16095   0.17511   0.19910
 Alpha virt. eigenvalues --    0.24595   0.31142   0.33614   0.37141   0.43929
 Alpha virt. eigenvalues --    0.44061   0.45479   0.46452   0.47735   0.53074

 Mulliken charges:
               1
     1  C    0.372964
     2  O   -0.302347
     3  O   -0.381256
     4  H    0.223975
     5  C   -0.078851
     6  N   -0.409772
     7  H    0.128193
     8  H    0.128193
     9  H    0.159451
    10  H    0.159451
 Sum of Mulliken charges =   0.00000

 Dipole moment (field-independent basis, Debye):
    X=             -0.9990    Y=             -4.5663    Z=              0.0000  Tot=              4.6743
 Quadrupole moment (field-independent basis, Debye-Ang):
   XX=            -29.5955   YY=            -37.1102   ZZ=            -26.7034
   XY=              3.1618   XZ=              0.0000   YZ=              0.0000

 P4DQ=-283.9566122\MP4SDQ=-283.967826\CCSD=-283.9648179\CCSD(T)=-284.00
 Normal termination of Gaussian 09 at Mon Dec 26 21:21:19 2016.
