 Gaussian 09, Revision D.01,
 Gaussian 09:  ES64L-G09RevD.01 24-Apr-2013

 ------------------
 #P CCSD(T) cc-pVTZ
 ------------------

 -------
 VIII_SP
 -------
 Symbolic Z-matrix:
 Charge =  0 Multiplicity = 1

                         Standard orientation:
 ---------------------------------------------------------------------
 Center     Atomic      Atomic             Coordinates (Angstroms)
 Number     Number       Type             X           Y           Z
 ---------------------------------------------------------------------
      1          6           0        0.546143    0.148212    0.012628
      2          8           0        1.729714   -0.499968   -0.044362
      3          8           0        0.511357    1.343991    0.036745
      4          1           0        1.592593   -1.450896   -0.085742
      5          6           0       -0.679769   -0.738038    0.076616
      6          7           0       -1.874850    0.037759   -0.172157
      7          1           0       -0.657798   -1.217003    1.063110
      8          1           0       -0.576213   -1.530916   -0.669685
      9          1           0       -2.658726   -0.288884    0.371019
     10          1           0       -1.702724    1.010149    0.051861
 ---------------------------------------------------------------------

 SCF Done:  E(RHF) =  -282.935812653     A.U. after   13 cycles
 E2 =    -0.1010301128D+01 EUMP2 =    -0.28394611378142D+03
 CCSD(T)
 CCSD(T)= -0.28400730149D+03

 The electronic state is 1-A.
 Alpha  occ. eigenvalues --  -20.61736 -20.54895 -15.54827 -11.38826 -11.28768
 Alpha  occ. eigenvalues --   -1.46891  -1.37326  -1.19798  -0.97501  -0.83352
 Alpha  occ. eigenvalues --   -0.74298  -0.67890  -0.67095  -0.65215  -0.59960
 Alpha  occ. eigenvalues --   -0.58138  -0.56130  -0.48696  -0.45757  -0.40809
 Alpha virt. eigenvalues --    0.11539   0.14059   0.16977   0.19955   0.20994
 Alpha virt. eigenvalues --    0.22878   0.31107   0.32116   0.35721   0.41236
 Alpha virt. eigenvalues --    0.45028   0.47588   0.49538   0.52008   0.54588

 Mulliken charges:
               1
     1  C    0.406311
     2  O   -0.296132
     3  O   -0.374125
     4  H    0.230581
     5  C   -0.079847
     6  N   -0.375031
     7  H    0.091220
     8  H    0.079321
     9  H    0.143414
    10  H    0.174289
 Sum of Mulliken charges =   0.00000

 Dipole moment (field-independent basis, Debye):
    X=             -1.2757    Y=             -4.1120    Z=              1.2725  Tot=              4.4894
 Quadrupole moment (field-independent basis, Debye-Ang):
   XX=            -30.9717   YY=            -28.4073   ZZ=            -29.9503
   XY=             -3.6554   XZ=             -3.4864   YZ=              0.0420

 \CCSD(T)=-284.0073015\RMSD=4.449e-09\PG=C01 [X(C2H5N1O2)]\\@
 Normal termination of Gaussian 09 at Mon Dec 26 21:32:37 2016.
