 Gaussian 16, Revision C.01,
 Gaussian 16:  ES64L-G16RevC.01  3-Jul-2019

 ------------------
 #p MP2 aug-cc-pvqz
 ------------------

 --------------------------
 start best geom PCCP paper
 --------------------------
 Symbolic Z-matrix:
 Charge =  0 Multiplicity = 1

                         Standard orientation:
 ---------------------------------------------------------------------
 Center     Atomic      Atomic             Coordinates (Angstroms)
 Number     Number       Type             X           Y           Z
 ---------------------------------------------------------------------
      1          7           0       -1.777783    0.124928   -0.048772
      2          1           0       -2.176227    0.113925   -0.975812
      3          6           0       -0.642823   -0.786994    0.071611
      4          6           0        0.686110   -0.041625    0.003814
      5          1           0       -0.662886   -1.287754    1.038553
      6          1           0       -0.617441   -1.563047   -0.691946
      7          8           0        1.742553   -0.607441   -0.059578
      8          8           0        0.574514    1.288852    0.038515
      9          1           0       -2.512293   -0.090938    0.606942
     10          1           0       -0.382931    1.473747    0.079614
 ---------------------------------------------------------------------

 SCF Done:  E(RHF) =  -282.966025059     A.U. after   12 cycles
 E2 =    -0.1095678002D+01 EUMP2 =    -0.28406170306121D+03

 The electronic state is 1-A.
 Alpha  occ. eigenvalues --  -20.59602 -20.53173 -15.58678 -11.37373 -11.28997
 Alpha  occ. eigenvalues --   -1.45427  -1.35664  -1.22410  -0.97956  -0.81259
 Alpha  occ. eigenvalues --   -0.73747  -0.71504  -0.67783  -0.62818  -0.62366
 Alpha  occ. eigenvalues --   -0.56320  -0.55865  -0.47425  -0.46608  -0.42518
 Alpha virt. eigenvalues --    0.01380   0.03026   0.03441   0.04191   0.05580
 Alpha virt. eigenvalues --    0.07187   0.08417   0.08580   0.08624   0.10065
 Alpha virt. eigenvalues --    0.11523   0.11901   0.12153   0.13168   0.14282

 Mulliken charges:
               1
     1  N   -0.567303
     2  H    0.253556
     3  C   -0.411103
     4  C    1.021122
     5  H    0.302741
     6  H    0.282245
     7  O   -0.744678
     8  O   -0.765522
     9  H    0.227124
    10  H    0.401818
 Sum of Mulliken charges =  -0.00000

 Dipole moment (field-independent basis, Debye):
    X=             -5.8950    Y=             -0.7045    Z=             -0.0100  Tot=              5.9370
 Quadrupole moment (field-independent basis, Debye-Ang):
   XX=            -32.1984   YY=            -31.2796   ZZ=            -27.1408
   XY=              1.8254   XZ=              0.5500   YZ=             -0.4828

 Normal termination of Gaussian 16 at Sat Jan 16 11:09:18 2021.
