 Gaussian 16, Revision C.01,
 Gaussian 16:  ES64L-G16RevC.01  3-Jul-2019

 ------------------
 #p MP2 aug-cc-pvqz
 ------------------

 --------------------------
 start best geom PCCP paper
 --------------------------
 Symbolic Z-matrix:
 Charge =  0 Multiplicity = 1

                         Standard orientation:
 ---------------------------------------------------------------------
 Center     Atomic      Atomic             Coordinates (Angstroms)
 Number     Number       Type             X           Y           Z
 ---------------------------------------------------------------------
      1          6           0        0.618518   -0.113452    0.015582
      2          8           0        0.629857    1.232314    0.102216
      3          8           0        1.611391   -0.762918   -0.179712
      4          1           0        1.543352    1.512541   -0.033863
      5          6           0       -0.754494   -0.683284    0.258311
      6          7           0       -1.797230    0.162725   -0.300561
      7          1           0       -0.825344   -0.835413    1.343137
      8          1           0       -0.780740   -1.661095   -0.214728
      9          1           0       -2.709920   -0.223225   -0.105836
     10          1           0       -1.760866    1.093359    0.091830
 ---------------------------------------------------------------------

 SCF Done:  E(RHF) =  -282.966332045     A.U. after   12 cycles
 E2 =    -0.1091868048D+01 EUMP2 =    -0.28405820009257D+03

 The electronic state is 1-A.
 Alpha  occ. eigenvalues --  -20.61563 -20.54957 -15.55579 -11.38724 -11.27766
 Alpha  occ. eigenvalues --   -1.47224  -1.36695  -1.20027  -0.97905  -0.82937
 Alpha  occ. eigenvalues --   -0.71759  -0.69130  -0.67173  -0.65056  -0.60205
 Alpha  occ. eigenvalues --   -0.58593  -0.55980  -0.49031  -0.46083  -0.40815
 Alpha virt. eigenvalues --    0.02217   0.03152   0.03887   0.04133   0.05678
 Alpha virt. eigenvalues --    0.07240   0.08326   0.09063   0.09831   0.10491
 Alpha virt. eigenvalues --    0.11447   0.11720   0.13168   0.13429   0.14398

 Mulliken charges:
               1
     1  C    0.935850
     2  O   -0.638125
     3  O   -0.736515
     4  H    0.295199
     5  C   -0.289525
     6  N   -0.649031
     7  H    0.307349
     8  H    0.274923
     9  H    0.229930
    10  H    0.269945
 Sum of Mulliken charges =  -0.00000

 Dipole moment (field-independent basis, Debye):
    X=             -1.9040    Y=              1.1127    Z=              1.6067  Tot=              2.7285
 Quadrupole moment (field-independent basis, Debye-Ang):
   XX=            -28.5140   YY=            -28.6443   ZZ=            -31.0594
   XY=              6.1962   XZ=             -1.9579   YZ=             -0.2808

 Normal termination of Gaussian 16 at Sat Jan 16 11:23:24 2021.
