 Gaussian 16, Revision C.01,
 Gaussian 16:  ES64L-G16RevC.01  3-Jul-2019

 ------------------
 #p MP2 aug-cc-pvqz
 ------------------

 --------------------------
 start best geom PCCP paper
 --------------------------
 Symbolic Z-matrix:
 Charge =  0 Multiplicity = 1

                         Standard orientation:
 ---------------------------------------------------------------------
 Center     Atomic      Atomic             Coordinates (Angstroms)
 Number     Number       Type             X           Y           Z
 ---------------------------------------------------------------------
      1          6           0        0.533710    0.102893    0.014867
      2          8           0        1.632185   -0.670799   -0.066880
      3          8           0        0.575034    1.304539    0.045254
      4          1           0        2.393950   -0.078239   -0.074783
      5          6           0       -0.719436   -0.723120    0.103930
      6          7           0       -1.876755    0.096522   -0.192365
      7          1           0       -0.714656   -1.160119    1.109923
      8          1           0       -0.636201   -1.548521   -0.602525
      9          1           0       -2.714348   -0.276671    0.227657
     10          1           0       -1.734852    1.039339    0.146516
 ---------------------------------------------------------------------

 SCF Done:  E(RHF) =  -282.968369002     A.U. after   12 cycles
 E2 =    -0.1092099413D+01 EUMP2 =    -0.28406046841560D+03

 The electronic state is 1-A.
 Alpha  occ. eigenvalues --  -20.61764 -20.55410 -15.54748 -11.39006 -11.27685
 Alpha  occ. eigenvalues --   -1.47524  -1.37173  -1.19497  -0.98324  -0.81612
 Alpha  occ. eigenvalues --   -0.72376  -0.71209  -0.67255  -0.63423  -0.60435
 Alpha  occ. eigenvalues --   -0.57832  -0.56589  -0.49238  -0.46291  -0.40425
 Alpha virt. eigenvalues --    0.02354   0.03075   0.03995   0.04268   0.05518
 Alpha virt. eigenvalues --    0.07848   0.08276   0.08609   0.09749   0.10818
 Alpha virt. eigenvalues --    0.10879   0.12538   0.13434   0.13504   0.14544

 Mulliken charges:
               1
     1  C    0.913498
     2  O   -0.664220
     3  O   -0.747666
     4  H    0.341532
     5  C   -0.292523
     6  N   -0.671714
     7  H    0.289423
     8  H    0.293016
     9  H    0.245936
    10  H    0.292718
 Sum of Mulliken charges =  -0.00000

 Dipole moment (field-independent basis, Debye):
    X=              0.0729    Y=             -1.8018    Z=              1.3414  Tot=              2.2474
 Quadrupole moment (field-independent basis, Debye-Ang):
   XX=            -23.6715   YY=            -33.2681   ZZ=            -30.5044
   XY=              1.2275   XZ=             -3.3760   YZ=              0.1016

 Normal termination of Gaussian 16 at Sat Jan 16 11:51:32 2021.
