 Gaussian 16, Revision C.01,
 Gaussian 16:  ES64L-G16RevC.01  3-Jul-2019

 ------------------
 #p MP2 aug-cc-pvqz
 ------------------

 --------------------------
 start best geom PCCP paper
 --------------------------
 Symbolic Z-matrix:
 Charge =  0 Multiplicity = 1

                         Standard orientation:
 ---------------------------------------------------------------------
 Center     Atomic      Atomic             Coordinates (Angstroms)
 Number     Number       Type             X           Y           Z
 ---------------------------------------------------------------------
      1          6           0       -0.000000    0.635900   -0.000000
      2          8           0       -1.323949    0.381124   -0.000000
      3          8           0        0.447609    1.752947   -0.000000
      4          1           0       -1.766360    1.239435   -0.000000
      5          6           0        0.856429   -0.616662    0.000000
      6          7           0        0.200424   -1.903701    0.000000
      7          1           0        1.506780   -0.534947    0.870775
      8          1           0        1.506780   -0.534947   -0.870775
      9          1           0       -0.389012   -2.015816   -0.812151
     10          1           0       -0.389012   -2.015816    0.812151
 ---------------------------------------------------------------------

 SCF Done:  E(RHF) =  -282.967592697     A.U. after   12 cycles
 E2 =    -0.1092039230D+01 EUMP2 =    -0.28405963192649D+03

 The electronic state is 1-A'.
 Alpha  occ. eigenvalues --  -20.61965 -20.54947 -15.55513 -11.38689 -11.27788
 Alpha  occ. eigenvalues --   -1.47433  -1.36803  -1.20198  -0.97572  -0.83405
 Alpha  occ. eigenvalues --   -0.71150  -0.70146  -0.69552  -0.63263  -0.59938
 Alpha  occ. eigenvalues --   -0.58370  -0.54832  -0.48741  -0.48398  -0.40516
 Alpha virt. eigenvalues --    0.02262   0.03551   0.03672   0.03942   0.06014
 Alpha virt. eigenvalues --    0.07199   0.08134   0.08592   0.08989   0.10629
 Alpha virt. eigenvalues --    0.11816   0.12300   0.12901   0.13726   0.14242

 Mulliken charges:
               1
     1  C    0.968671
     2  O   -0.669232
     3  O   -0.746125
     4  H    0.306195
     5  C   -0.365737
     6  N   -0.650752
     7  H    0.319441
     8  H    0.319441
     9  H    0.259049
    10  H    0.259049
 Sum of Mulliken charges =  -0.00000

 Dipole moment (field-independent basis, Debye):
    X=             -1.7885    Y=             -1.0089    Z=             -0.0000  Tot=              2.0534
 Quadrupole moment (field-independent basis, Debye-Ang):
   XX=            -27.8402   YY=            -37.2450   ZZ=            -27.2247
   XY=             -2.1799   XZ=             -0.0000   YZ=             -0.0000

 Normal termination of Gaussian 16 at Sat Jan 16 12:10:54 2021.
