 Gaussian 16, Revision C.01,
 Gaussian 16:  ES64L-G16RevC.01  3-Jul-2019

 ------------------
 #p MP2 aug-cc-pvqz
 ------------------

 --------------------------
 start best geom PCCP paper
 --------------------------
 Symbolic Z-matrix:
 Charge =  0 Multiplicity = 1

                         Standard orientation:
 ---------------------------------------------------------------------
 Center     Atomic      Atomic             Coordinates (Angstroms)
 Number     Number       Type             X           Y           Z
 ---------------------------------------------------------------------
      1          6           0       -0.000000    0.573396    0.000000
      2          8           0        0.957640    1.531040    0.000000
      3          8           0       -1.156728    0.877678    0.000000
      4          1           0        1.833849    1.134152   -0.000000
      5          6           0        0.517981   -0.858483   -0.000000
      6          7           0       -0.496418   -1.881566   -0.000000
      7          1           0        1.159024   -0.981844    0.876153
      8          1           0        1.159024   -0.981844   -0.876153
      9          1           0       -1.096075   -1.779366    0.807682
     10          1           0       -1.096075   -1.779366   -0.807682
 ---------------------------------------------------------------------

 SCF Done:  E(RHF) =  -282.961968206     A.U. after   12 cycles
 E2 =    -0.1092542759D+01 EUMP2 =    -0.28405451096534D+03

 The electronic state is 1-A'.
 Alpha  occ. eigenvalues --  -20.61788 -20.54956 -15.55802 -11.38558 -11.28996
 Alpha  occ. eigenvalues --   -1.46837  -1.37294  -1.20676  -0.97626  -0.83547
 Alpha  occ. eigenvalues --   -0.73952  -0.70616  -0.67302  -0.63220  -0.60831
 Alpha  occ. eigenvalues --   -0.59080  -0.54801  -0.48877  -0.47021  -0.41696
 Alpha virt. eigenvalues --    0.01830   0.03270   0.03323   0.04642   0.05858
 Alpha virt. eigenvalues --    0.06433   0.08422   0.08473   0.08610   0.09953
 Alpha virt. eigenvalues --    0.10993   0.11748   0.13072   0.13982   0.14838

 Mulliken charges:
               1
     1  C    1.005823
     2  O   -0.755558
     3  O   -0.720739
     4  H    0.379298
     5  C   -0.416279
     6  N   -0.648214
     7  H    0.302811
     8  H    0.302811
     9  H    0.275023
    10  H    0.275023
 Sum of Mulliken charges =  -0.00000

 Dipole moment (field-independent basis, Debye):
    X=              3.0306    Y=             -1.5670    Z=              0.0000  Tot=              3.4118
 Quadrupole moment (field-independent basis, Debye-Ang):
   XX=            -26.6247   YY=            -38.9941   ZZ=            -27.2694
   XY=              3.9505   XZ=             -0.0000   YZ=              0.0000

 Normal termination of Gaussian 16 at Sat Jan 16 12:19:22 2021.
