 Gaussian 16, Revision C.01,
 Gaussian 16:  ES64L-G16RevC.01  3-Jul-2019

 ------------------
 #p MP2 aug-cc-pvqz
 ------------------

 --------------------------
 start best geom PCCP paper
 --------------------------
 Symbolic Z-matrix:
 Charge =  0 Multiplicity = 1

                         Standard orientation:
 ---------------------------------------------------------------------
 Center     Atomic      Atomic             Coordinates (Angstroms)
 Number     Number       Type             X           Y           Z
 ---------------------------------------------------------------------
      1          6           0       -0.000000    0.549747   -0.000000
      2          8           0        0.985218    1.470653   -0.000000
      3          8           0       -1.167485    0.837818    0.000000
      4          1           0        0.562653    2.338326   -0.000000
      5          6           0        0.564972   -0.854997   -0.000000
      6          7           0       -0.413127   -1.914567    0.000000
      7          1           0        1.214211   -0.944801    0.871558
      8          1           0        1.214211   -0.944801   -0.871558
      9          1           0       -1.015438   -1.841513    0.808581
     10          1           0       -1.015438   -1.841513   -0.808581
 ---------------------------------------------------------------------

 SCF Done:  E(RHF) =  -282.970885666     A.U. after   12 cycles
 E2 =    -0.1091398827D+01 EUMP2 =    -0.28406228449257D+03

 The electronic state is 1-A'.
 Alpha  occ. eigenvalues --  -20.61680 -20.55436 -15.55114 -11.38641 -11.27742
 Alpha  occ. eigenvalues --   -1.47354  -1.37031  -1.19927  -0.98102  -0.81914
 Alpha  occ. eigenvalues --   -0.71250  -0.70202  -0.69873  -0.63282  -0.60533
 Alpha  occ. eigenvalues --   -0.58966  -0.53808  -0.49247  -0.46976  -0.41319
 Alpha virt. eigenvalues --    0.02456   0.03454   0.03705   0.04178   0.06116
 Alpha virt. eigenvalues --    0.07188   0.08157   0.08357   0.08947   0.10727
 Alpha virt. eigenvalues --    0.11428   0.12246   0.13177   0.13852   0.14538

 Mulliken charges:
               1
     1  C    0.899563
     2  O   -0.668290
     3  O   -0.740248
     4  H    0.343261
     5  C   -0.347358
     6  N   -0.664340
     7  H    0.322808
     8  H    0.322808
     9  H    0.265898
    10  H    0.265898
 Sum of Mulliken charges =  -0.00000

 Dipole moment (field-independent basis, Debye):
    X=              1.0636    Y=              0.7075    Z=             -0.0000  Tot=              1.2774
 Quadrupole moment (field-independent basis, Debye-Ang):
   XX=            -33.0633   YY=            -30.2261   ZZ=            -27.2737
   XY=              2.7937   XZ=             -0.0000   YZ=             -0.0000

 Normal termination of Gaussian 16 at Sat Jan 16 12:28:24 2021.
