 Gaussian 16, Revision C.01,
 Gaussian 16:  ES64L-G16RevC.01  3-Jul-2019

 ------------------
 #p MP2 aug-cc-pvqz
 ------------------

 ------
 VII_SP
 ------
 Symbolic Z-matrix:
 Charge =  0 Multiplicity = 1

                         Standard orientation:
 ---------------------------------------------------------------------
 Center     Atomic      Atomic             Coordinates (Angstroms)
 Number     Number       Type             X           Y           Z
 ---------------------------------------------------------------------
      1          6           0        0.000000    0.678907    0.000000
      2          8           0       -1.337854    0.533471    0.000000
      3          8           0        0.506518    1.764722    0.000000
      4          1           0       -1.547449   -0.408206    0.000000
      5          6           0        0.827086   -0.604884   -0.000000
      6          7           0        0.142184   -1.872117   -0.000000
      7          1           0        1.477562   -0.542869    0.871458
      8          1           0        1.477562   -0.542869   -0.871458
      9          1           0       -0.357397   -2.115457    0.838184
     10          1           0       -0.357397   -2.115457   -0.838184
 ---------------------------------------------------------------------

 SCF Done:  E(RHF) =  -282.958899713     A.U. after   12 cycles
 E2 =    -0.1094173932D+01 EUMP2 =    -0.28405307364425D+03

 The electronic state is 1-A'.
 Alpha  occ. eigenvalues --  -20.61369 -20.53917 -15.57815 -11.38050 -11.28967
 Alpha  occ. eigenvalues --   -1.46486  -1.36601  -1.21993  -0.97906  -0.83116
 Alpha  occ. eigenvalues --   -0.74458  -0.72621  -0.67160  -0.63553  -0.62324
 Alpha  occ. eigenvalues --   -0.57041  -0.56029  -0.48611  -0.47617  -0.40896
 Alpha virt. eigenvalues --    0.01557   0.03167   0.03425   0.04205   0.05595
 Alpha virt. eigenvalues --    0.07082   0.08449   0.08491   0.08644   0.09983
 Alpha virt. eigenvalues --    0.11706   0.11822   0.12180   0.13180   0.14413

 Mulliken charges:
               1
     1  C    1.068633
     2  O   -0.739405
     3  O   -0.743773
     4  H    0.331516
     5  C   -0.466621
     6  N   -0.574135
     7  H    0.320064
     8  H    0.320064
     9  H    0.241827
    10  H    0.241827
 Sum of Mulliken charges =  -0.00000

 Dipole moment (field-independent basis, Debye):
    X=             -0.9879    Y=             -4.5590    Z=             -0.0000  Tot=              4.6648
 Quadrupole moment (field-independent basis, Debye-Ang):
   XX=            -29.8640   YY=            -37.5637   ZZ=            -26.9243
   XY=              3.1094   XZ=              0.0000   YZ=              0.0000

 Normal termination of Gaussian 16 at Mon Jan 18 19:47:54 2021.
