 Gaussian 16, Revision C.01,
 Gaussian 16:  ES64L-G16RevC.01  3-Jul-2019

 ------------------
 #p MP2 aug-cc-pvqz
 ------------------

 -------
 VIII_SP
 -------
 Symbolic Z-matrix:
 Charge =  0 Multiplicity = 1

                         Standard orientation:
 ---------------------------------------------------------------------
 Center     Atomic      Atomic             Coordinates (Angstroms)
 Number     Number       Type             X           Y           Z
 ---------------------------------------------------------------------
      1          6           0        0.546143    0.148212    0.012628
      2          8           0        1.729714   -0.499968   -0.044362
      3          8           0        0.511357    1.343991    0.036745
      4          1           0        1.592593   -1.450896   -0.085742
      5          6           0       -0.679769   -0.738038    0.076616
      6          7           0       -1.874850    0.037759   -0.172157
      7          1           0       -0.657798   -1.217003    1.063110
      8          1           0       -0.576213   -1.530916   -0.669685
      9          1           0       -2.658726   -0.288884    0.371019
     10          1           0       -1.702724    1.010149    0.051861
 ---------------------------------------------------------------------

 SCF Done:  E(RHF) =  -282.959293949     A.U. after   12 cycles
 E2 =    -0.1093327345D+01 EUMP2 =    -0.28405262129443D+03

 The electronic state is 1-A.
 Alpha  occ. eigenvalues --  -20.61943 -20.55088 -15.55241 -11.39052 -11.28948
 Alpha  occ. eigenvalues --   -1.47151  -1.37585  -1.20130  -0.97765  -0.83667
 Alpha  occ. eigenvalues --   -0.74610  -0.68210  -0.67390  -0.65560  -0.60261
 Alpha  occ. eigenvalues --   -0.58462  -0.56470  -0.49010  -0.46092  -0.41092
 Alpha virt. eigenvalues --    0.01685   0.02877   0.03558   0.04585   0.05584
 Alpha virt. eigenvalues --    0.06960   0.08552   0.08578   0.09637   0.10113
 Alpha virt. eigenvalues --    0.10575   0.11993   0.12506   0.13183   0.14922

 Mulliken charges:
               1
     1  C    1.030808
     2  O   -0.736223
     3  O   -0.727884
     4  H    0.372061
     5  C   -0.352791
     6  N   -0.693584
     7  H    0.282829
     8  H    0.257869
     9  H    0.257847
    10  H    0.309067
 Sum of Mulliken charges =  -0.00000

 Dipole moment (field-independent basis, Debye):
    X=             -1.2859    Y=             -4.1575    Z=              1.2835  Tot=              4.5372
 Quadrupole moment (field-independent basis, Debye-Ang):
   XX=            -31.2953   YY=            -28.6244   ZZ=            -30.2761
   XY=             -3.5568   XZ=             -3.5579   YZ=              0.0307

 Normal termination of Gaussian 16 at Mon Jan 18 19:42:48 2021.
