 Gaussian 16, Revision C.01,
 Gaussian 16:  AM64L-G16RevC.01  3-Jul-2019

 -----------------
 #P HF aug-cc-pV5Z
 -----------------

 --------------------------
 start best geom PCCP paper
 --------------------------
 Symbolic Z-matrix:
 Charge =  0 Multiplicity = 1

                         Standard orientation:
 ---------------------------------------------------------------------
 Center     Atomic      Atomic             Coordinates (Angstroms)
 Number     Number       Type             X           Y           Z
 ---------------------------------------------------------------------
      1          7           0       -1.777783    0.124928   -0.048772
      2          1           0       -2.176227    0.113925   -0.975812
      3          6           0       -0.642823   -0.786994    0.071611
      4          6           0        0.686110   -0.041625    0.003814
      5          1           0       -0.662886   -1.287754    1.038553
      6          1           0       -0.617441   -1.563047   -0.691946
      7          8           0        1.742553   -0.607441   -0.059578
      8          8           0        0.574514    1.288852    0.038515
      9          1           0       -2.512293   -0.090938    0.606942
     10          1           0       -0.382931    1.473747    0.079614
 ---------------------------------------------------------------------

 SCF Done:  E(RHF) =  -282.970130358     A.U. after   12 cycles

 The electronic state is 1-A.
 Alpha  occ. eigenvalues --  -20.59530 -20.53102 -15.58638 -11.37342 -11.28972
 Alpha  occ. eigenvalues --   -1.45405  -1.35642  -1.22400  -0.97950  -0.81254
 Alpha  occ. eigenvalues --   -0.73747  -0.71506  -0.67783  -0.62820  -0.62368
 Alpha  occ. eigenvalues --   -0.56324  -0.55870  -0.47429  -0.46612  -0.42523
 Alpha virt. eigenvalues --    0.01097   0.02571   0.02946   0.03624   0.04807
 Alpha virt. eigenvalues --    0.06117   0.07027   0.07247   0.07364   0.08275
 Alpha virt. eigenvalues --    0.09600   0.10102   0.10351   0.11179   0.12026

 Mulliken charges:
               1
     1  N   -0.766189
     2  H    0.337883
     3  C   -0.324729
     4  C    0.690139
     5  H    0.241726
     6  H    0.238404
     7  O   -0.592577
     8  O   -0.685695
     9  H    0.339059
    10  H    0.521980
 Sum of Mulliken charges =  -0.00000

 Dipole moment (field-independent basis, Debye):
    X=             -5.8952    Y=             -0.7047    Z=             -0.0100  Tot=              5.9372
 Quadrupole moment (field-independent basis, Debye-Ang):
   XX=            -32.1943   YY=            -31.2744   ZZ=            -27.1346
   XY=              1.8263   XZ=              0.5500   YZ=             -0.4828

 Normal termination of Gaussian 16 at Wed Jan 27 07:24:55 2021.
