 Gaussian 16, Revision C.01,
 Gaussian 16:  AM64L-G16RevC.01  3-Jul-2019

 -----------------
 #P HF aug-cc-pV5Z
 -----------------

 --------------------------
 start best geom PCCP paper
 --------------------------
 Symbolic Z-matrix:
 Charge =  0 Multiplicity = 1

                         Standard orientation:
 ---------------------------------------------------------------------
 Center     Atomic      Atomic             Coordinates (Angstroms)
 Number     Number       Type             X           Y           Z
 ---------------------------------------------------------------------
      1          6           0        0.618518   -0.113452    0.015582
      2          8           0        0.629857    1.232314    0.102216
      3          8           0        1.611391   -0.762918   -0.179712
      4          1           0        1.543352    1.512541   -0.033863
      5          6           0       -0.754494   -0.683284    0.258311
      6          7           0       -1.797230    0.162725   -0.300561
      7          1           0       -0.825344   -0.835413    1.343137
      8          1           0       -0.780740   -1.661095   -0.214728
      9          1           0       -2.709920   -0.223225   -0.105836
     10          1           0       -1.760866    1.093359    0.091830
 ---------------------------------------------------------------------

 SCF Done:  E(RHF) =  -282.970453770     A.U. after   12 cycles

 The electronic state is 1-A.
 Alpha  occ. eigenvalues --  -20.61492 -20.54884 -15.55538 -11.38692 -11.27740
 Alpha  occ. eigenvalues --   -1.47202  -1.36673  -1.20015  -0.97898  -0.82933
 Alpha  occ. eigenvalues --   -0.71757  -0.69129  -0.67174  -0.65058  -0.60208
 Alpha  occ. eigenvalues --   -0.58595  -0.55983  -0.49034  -0.46087  -0.40820
 Alpha virt. eigenvalues --    0.01886   0.02699   0.03320   0.03543   0.04901
 Alpha virt. eigenvalues --    0.06172   0.06972   0.07684   0.08166   0.09016
 Alpha virt. eigenvalues --    0.09661   0.09862   0.11222   0.11261   0.11986

 Mulliken charges:
               1
     1  C    0.720150
     2  O   -0.659878
     3  O   -0.593365
     4  H    0.494031
     5  C   -0.293668
     6  N   -0.902346
     7  H    0.224017
     8  H    0.230512
     9  H    0.383154
    10  H    0.397393
 Sum of Mulliken charges =  -0.00000

 Dipole moment (field-independent basis, Debye):
    X=             -1.9038    Y=              1.1126    Z=              1.6067  Tot=              2.7284
 Quadrupole moment (field-independent basis, Debye-Ang):
   XX=            -28.5091   YY=            -28.6395   ZZ=            -31.0521
   XY=              6.1970   XZ=             -1.9580   YZ=             -0.2808

 Normal termination of Gaussian 16 at Wed Jan 27 05:30:46 2021.
