 Gaussian 16, Revision C.01,
 Gaussian 16:  AM64L-G16RevC.01  3-Jul-2019

 -----------------
 #P HF aug-cc-pV5Z
 -----------------

 --------------------------
 start best geom PCCP paper
 --------------------------
 Symbolic Z-matrix:
 Charge =  0 Multiplicity = 1

                         Standard orientation:
 ---------------------------------------------------------------------
 Center     Atomic      Atomic             Coordinates (Angstroms)
 Number     Number       Type             X           Y           Z
 ---------------------------------------------------------------------
      1          6           0        0.533710    0.102893    0.014867
      2          8           0        1.632185   -0.670799   -0.066880
      3          8           0        0.575034    1.304539    0.045254
      4          1           0        2.393950   -0.078239   -0.074783
      5          6           0       -0.719436   -0.723120    0.103930
      6          7           0       -1.876755    0.096522   -0.192365
      7          1           0       -0.714656   -1.160119    1.109923
      8          1           0       -0.636201   -1.548521   -0.602525
      9          1           0       -2.714348   -0.276671    0.227657
     10          1           0       -1.734852    1.039339    0.146516
 ---------------------------------------------------------------------

 SCF Done:  E(RHF) =  -282.972495218     A.U. after   12 cycles

 The electronic state is 1-A.
 Alpha  occ. eigenvalues --  -20.61691 -20.55338 -15.54708 -11.38974 -11.27659
 Alpha  occ. eigenvalues --   -1.47502  -1.37151  -1.19485  -0.98317  -0.81608
 Alpha  occ. eigenvalues --   -0.72376  -0.71207  -0.67257  -0.63425  -0.60437
 Alpha  occ. eigenvalues --   -0.57835  -0.56592  -0.49241  -0.46295  -0.40430
 Alpha virt. eigenvalues --    0.02027   0.02621   0.03394   0.03638   0.04781
 Alpha virt. eigenvalues --    0.06636   0.07011   0.07274   0.08391   0.08799
 Alpha virt. eigenvalues --    0.09423   0.10526   0.11178   0.11433   0.12039

 Mulliken charges:
               1
     1  C    0.760967
     2  O   -0.665210
     3  O   -0.600806
     4  H    0.502784
     5  C   -0.310832
     6  N   -0.918916
     7  H    0.248652
     8  H    0.205412
     9  H    0.392092
    10  H    0.385855
 Sum of Mulliken charges =  -0.00000

 Dipole moment (field-independent basis, Debye):
    X=              0.0730    Y=             -1.8017    Z=              1.3414  Tot=              2.2474
 Quadrupole moment (field-independent basis, Debye-Ang):
   XX=            -23.6661   YY=            -33.2637   ZZ=            -30.4971
   XY=              1.2276   XZ=             -3.3764   YZ=              0.1015

 Normal termination of Gaussian 16 at Wed Jan 27 01:47:55 2021.
