 Gaussian 16, Revision C.01,
 Gaussian 16:  AM64L-G16RevC.01  3-Jul-2019

 -----------------
 #P HF aug-cc-pV5Z
 -----------------

 --------------------------
 start best geom PCCP paper
 --------------------------
 Symbolic Z-matrix:
 Charge =  0 Multiplicity = 1

                         Standard orientation:
 ---------------------------------------------------------------------
 Center     Atomic      Atomic             Coordinates (Angstroms)
 Number     Number       Type             X           Y           Z
 ---------------------------------------------------------------------
      1          6           0       -0.000000    0.635900    0.000000
      2          8           0       -1.323949    0.381124    0.000000
      3          8           0        0.447609    1.752947    0.000000
      4          1           0       -1.766360    1.239435    0.000000
      5          6           0        0.856429   -0.616662   -0.000000
      6          7           0        0.200424   -1.903701   -0.000000
      7          1           0        1.506780   -0.534947    0.870775
      8          1           0        1.506780   -0.534947   -0.870775
      9          1           0       -0.389012   -2.015816   -0.812151
     10          1           0       -0.389012   -2.015816    0.812151
 ---------------------------------------------------------------------

 SCF Done:  E(RHF) =  -282.971709405     A.U. after   12 cycles

 The electronic state is 1-A'.
 Alpha  occ. eigenvalues --  -20.61894 -20.54875 -15.55472 -11.38658 -11.27762
 Alpha  occ. eigenvalues --   -1.47411  -1.36782  -1.20186  -0.97565  -0.83401
 Alpha  occ. eigenvalues --   -0.71148  -0.70148  -0.69551  -0.63265  -0.59940
 Alpha  occ. eigenvalues --   -0.58372  -0.54837  -0.48744  -0.48402  -0.40521
 Alpha virt. eigenvalues --    0.01924   0.03050   0.03121   0.03392   0.05209
 Alpha virt. eigenvalues --    0.06178   0.06868   0.07127   0.07712   0.09035
 Alpha virt. eigenvalues --    0.09976   0.10294   0.10895   0.11330   0.11853

 Mulliken charges:
               1
     1  C    0.698419
     2  O   -0.669624
     3  O   -0.595552
     4  H    0.514273
     5  C   -0.277513
     6  N   -0.945537
     7  H    0.238800
     8  H    0.238800
     9  H    0.398968
    10  H    0.398968
 Sum of Mulliken charges =  -0.00000

 Dipole moment (field-independent basis, Debye):
    X=             -1.7886    Y=             -1.0086    Z=             -0.0000  Tot=              2.0533
 Quadrupole moment (field-independent basis, Debye-Ang):
   XX=            -27.8353   YY=            -37.2411   ZZ=            -27.2173
   XY=             -2.1801   XZ=              0.0000   YZ=             -0.0000

 Normal termination of Gaussian 16 at Tue Jan 26 22:43:37 2021.
