 Gaussian 16, Revision C.01,
 Gaussian 16:  AM64L-G16RevC.01  3-Jul-2019

 -----------------
 #P HF aug-cc-pV5Z
 -----------------

 --------------------------
 start best geom PCCP paper
 --------------------------
 Symbolic Z-matrix:
 Charge =  0 Multiplicity = 1

                         Standard orientation:
 ---------------------------------------------------------------------
 Center     Atomic      Atomic             Coordinates (Angstroms)
 Number     Number       Type             X           Y           Z
 ---------------------------------------------------------------------
      1          6           0        0.000000    0.573396   -0.000000
      2          8           0        0.957640    1.531040   -0.000000
      3          8           0       -1.156728    0.877678   -0.000000
      4          1           0        1.833849    1.134152   -0.000000
      5          6           0        0.517981   -0.858483    0.000000
      6          7           0       -0.496418   -1.881566    0.000000
      7          1           0        1.159024   -0.981844    0.876153
      8          1           0        1.159024   -0.981844   -0.876153
      9          1           0       -1.096075   -1.779366    0.807682
     10          1           0       -1.096075   -1.779366   -0.807682
 ---------------------------------------------------------------------

 SCF Done:  E(RHF) =  -282.966089670     A.U. after   12 cycles

 The electronic state is 1-A'.
 Alpha  occ. eigenvalues --  -20.61716 -20.54884 -15.55762 -11.38526 -11.28970
 Alpha  occ. eigenvalues --   -1.46815  -1.37272  -1.20665  -0.97620  -0.83542
 Alpha  occ. eigenvalues --   -0.73952  -0.70618  -0.67301  -0.63222  -0.60833
 Alpha  occ. eigenvalues --   -0.59083  -0.54805  -0.48880  -0.47025  -0.41701
 Alpha virt. eigenvalues --    0.01558   0.02826   0.02833   0.04004   0.05082
 Alpha virt. eigenvalues --    0.05510   0.07064   0.07171   0.07219   0.08543
 Alpha virt. eigenvalues --    0.09592   0.09843   0.10873   0.11559   0.12687

 Mulliken charges:
               1
     1  C    0.694965
     2  O   -0.627124
     3  O   -0.594864
     4  H    0.500966
     5  C   -0.276698
     6  N   -0.952629
     7  H    0.215784
     8  H    0.215784
     9  H    0.411908
    10  H    0.411908
 Sum of Mulliken charges =  -0.00000

 Dipole moment (field-independent basis, Debye):
    X=              3.0307    Y=             -1.5670    Z=             -0.0000  Tot=              3.4119
 Quadrupole moment (field-independent basis, Debye-Ang):
   XX=            -26.6196   YY=            -38.9898   ZZ=            -27.2629
   XY=              3.9509   XZ=              0.0000   YZ=             -0.0000

 Normal termination of Gaussian 16 at Tue Jan 26 21:31:08 2021.
