 Gaussian 16, Revision C.01,
 Gaussian 16:  AM64L-G16RevC.01  3-Jul-2019

 -----------------
 #P HF aug-cc-pV5Z
 -----------------

 --------------------------
 start best geom PCCP paper
 --------------------------
 Symbolic Z-matrix:
 Charge =  0 Multiplicity = 1

                         Standard orientation:
 ---------------------------------------------------------------------
 Center     Atomic      Atomic             Coordinates (Angstroms)
 Number     Number       Type             X           Y           Z
 ---------------------------------------------------------------------
      1          6           0        0.000000    0.549747    0.000000
      2          8           0        0.985218    1.470653    0.000000
      3          8           0       -1.167485    0.837818    0.000000
      4          1           0        0.562653    2.338326    0.000000
      5          6           0        0.564972   -0.854997    0.000000
      6          7           0       -0.413127   -1.914567    0.000000
      7          1           0        1.214211   -0.944801    0.871558
      8          1           0        1.214211   -0.944801   -0.871558
      9          1           0       -1.015438   -1.841513    0.808581
     10          1           0       -1.015438   -1.841513   -0.808581
 ---------------------------------------------------------------------

 SCF Done:  E(RHF) =  -282.975008087     A.U. after   12 cycles

 The electronic state is 1-A'.
 Alpha  occ. eigenvalues --  -20.61608 -20.55365 -15.55074 -11.38610 -11.27716
 Alpha  occ. eigenvalues --   -1.47332  -1.37010  -1.19916  -0.98095  -0.81909
 Alpha  occ. eigenvalues --   -0.71247  -0.70202  -0.69875  -0.63284  -0.60535
 Alpha  occ. eigenvalues --   -0.58968  -0.53812  -0.49251  -0.46980  -0.41324
 Alpha virt. eigenvalues --    0.02123   0.02968   0.03154   0.03599   0.05289
 Alpha virt. eigenvalues --    0.06087   0.06947   0.07015   0.07657   0.09184
 Alpha virt. eigenvalues --    0.09829   0.10275   0.11015   0.11658   0.12004

 Mulliken charges:
               1
     1  C    0.720088
     2  O   -0.654273
     3  O   -0.610450
     4  H    0.496101
     5  C   -0.315960
     6  N   -0.937575
     7  H    0.248737
     8  H    0.248737
     9  H    0.402298
    10  H    0.402298
 Sum of Mulliken charges =  -0.00000

 Dipole moment (field-independent basis, Debye):
    X=              1.0634    Y=              0.7078    Z=             -0.0000  Tot=              1.2774
 Quadrupole moment (field-independent basis, Debye-Ang):
   XX=            -33.0593   YY=            -30.2211   ZZ=            -27.2661
   XY=              2.7939   XZ=              0.0000   YZ=             -0.0000

 Normal termination of Gaussian 16 at Tue Jan 26 20:18:33 2021.
