 Gaussian 16, Revision C.01,
 Gaussian 16:  AM64L-G16RevC.01  3-Jul-2019

 -----------------
 #P HF aug-cc-pV5Z
 -----------------

 ------
 VII_SP
 ------
 Symbolic Z-matrix:
 Charge =  0 Multiplicity = 1

                         Standard orientation:
 ---------------------------------------------------------------------
 Center     Atomic      Atomic             Coordinates (Angstroms)
 Number     Number       Type             X           Y           Z
 ---------------------------------------------------------------------
      1          6           0        0.000000    0.678907    0.000000
      2          8           0       -1.337854    0.533471    0.000000
      3          8           0        0.506518    1.764722    0.000000
      4          1           0       -1.547449   -0.408206    0.000000
      5          6           0        0.827086   -0.604884    0.000000
      6          7           0        0.142184   -1.872117    0.000000
      7          1           0        1.477562   -0.542869    0.871458
      8          1           0        1.477562   -0.542869   -0.871458
      9          1           0       -0.357397   -2.115457    0.838185
     10          1           0       -0.357397   -2.115457   -0.838185
 ---------------------------------------------------------------------

 SCF Done:  E(RHF) =  -282.963013613     A.U. after   12 cycles

 The electronic state is 1-A'.
 Alpha  occ. eigenvalues --  -20.61298 -20.53845 -15.57776 -11.38019 -11.28941
 Alpha  occ. eigenvalues --   -1.46464  -1.36579  -1.21982  -0.97900  -0.83111
 Alpha  occ. eigenvalues --   -0.74457  -0.72623  -0.67159  -0.63556  -0.62326
 Alpha  occ. eigenvalues --   -0.57044  -0.56033  -0.48614  -0.47621  -0.40901
 Alpha virt. eigenvalues --    0.01273   0.02684   0.02981   0.03614   0.04861
 Alpha virt. eigenvalues --    0.06066   0.07109   0.07184   0.07321   0.08245
 Alpha virt. eigenvalues --    0.09742   0.10141   0.10381   0.11082   0.12285

 Mulliken charges:
               1
     1  C    0.687875
     2  O   -0.668765
     3  O   -0.595122
     4  H    0.486070
     5  C   -0.241868
     6  N   -0.882875
     7  H    0.233869
     8  H    0.233869
     9  H    0.373473
    10  H    0.373473
 Sum of Mulliken charges =  -0.00000

 Dipole moment (field-independent basis, Debye):
    X=             -0.9878    Y=             -4.5591    Z=             -0.0000  Tot=              4.6649
 Quadrupole moment (field-independent basis, Debye-Ang):
   XX=            -29.8584   YY=            -37.5602   ZZ=            -26.9183
   XY=              3.1093   XZ=              0.0000   YZ=              0.0000

 Normal termination of Gaussian 16 at Wed Jan 27 10:22:45 2021.
