 Gaussian 16, Revision C.01,
 Gaussian 16:  AM64L-G16RevC.01  3-Jul-2019

 -----------------
 #P HF aug-cc-pV5Z
 -----------------

 -------
 VIII_SP
 -------
 Symbolic Z-matrix:
 Charge =  0 Multiplicity = 1

                         Standard orientation:
 ---------------------------------------------------------------------
 Center     Atomic      Atomic             Coordinates (Angstroms)
 Number     Number       Type             X           Y           Z
 ---------------------------------------------------------------------
      1          6           0        0.546143    0.148212    0.012628
      2          8           0        1.729714   -0.499968   -0.044362
      3          8           0        0.511357    1.343991    0.036745
      4          1           0        1.592593   -1.450896   -0.085742
      5          6           0       -0.679769   -0.738038    0.076616
      6          7           0       -1.874850    0.037759   -0.172157
      7          1           0       -0.657798   -1.217003    1.063110
      8          1           0       -0.576213   -1.530916   -0.669685
      9          1           0       -2.658726   -0.288884    0.371019
     10          1           0       -1.702724    1.010149    0.051861
 ---------------------------------------------------------------------

 SCF Done:  E(RHF) =  -282.963419150     A.U. after   11 cycles

 The electronic state is 1-A.
 Alpha  occ. eigenvalues --  -20.61870 -20.55016 -15.55201 -11.39021 -11.28923
 Alpha  occ. eigenvalues --   -1.47128  -1.37563  -1.20118  -0.97759  -0.83662
 Alpha  occ. eigenvalues --   -0.74610  -0.68211  -0.67390  -0.65560  -0.60264
 Alpha  occ. eigenvalues --   -0.58465  -0.56473  -0.49013  -0.46096  -0.41097
 Alpha virt. eigenvalues --    0.01408   0.02452   0.03038   0.03911   0.04869
 Alpha virt. eigenvalues --    0.05938   0.07191   0.07241   0.08233   0.08547
 Alpha virt. eigenvalues --    0.08845   0.10204   0.10477   0.11103   0.12460

 Mulliken charges:
               1
     1  C    0.729559
     2  O   -0.635088
     3  O   -0.593089
     4  H    0.502260
     5  C   -0.290674
     6  N   -0.922843
     7  H    0.222142
     8  H    0.204762
     9  H    0.398803
    10  H    0.384169
 Sum of Mulliken charges =  -0.00000

 Dipole moment (field-independent basis, Debye):
    X=             -1.2860    Y=             -4.1578    Z=              1.2836  Tot=              4.5375
 Quadrupole moment (field-independent basis, Debye-Ang):
   XX=            -31.2898   YY=            -28.6194   ZZ=            -30.2698
   XY=             -3.5570   XZ=             -3.5584   YZ=              0.0306

 Normal termination of Gaussian 16 at Wed Jan 27 09:08:23 2021.
