 Gaussian 16, Revision C.01,
 Gaussian 16:  ES64L-G16RevC.01  3-Jul-2019

 -------------------
 #p CCSD(T)=FULL/gen
 -------------------

 --------------------------
 start best geom PCCP paper
 --------------------------
 Symbolic Z-matrix:
 Charge =  0 Multiplicity = 1

                         Standard orientation:
 ---------------------------------------------------------------------
 Center     Atomic      Atomic             Coordinates (Angstroms)
 Number     Number       Type             X           Y           Z
 ---------------------------------------------------------------------
      1          7           0       -1.777783    0.124928   -0.048772
      2          1           0       -2.176227    0.113925   -0.975812
      3          6           0       -0.642823   -0.786994    0.071611
      4          6           0        0.686110   -0.041625    0.003814
      5          1           0       -0.662886   -1.287754    1.038553
      6          1           0       -0.617441   -1.563047   -0.691946
      7          8           0        1.742553   -0.607441   -0.059578
      8          8           0        0.574514    1.288852    0.038515
      9          1           0       -2.512293   -0.090938    0.606942
     10          1           0       -0.382931    1.473747    0.079614
 ---------------------------------------------------------------------

 SCF Done:  E(RHF) =  -282.944814669     A.U. after   13 cycles
 E2 =    -0.1273757748D+01 EUMP2 =    -0.28421857241777D+03
 CCSD(T)
 CCSD(T)= -0.28428851970D+03

 The electronic state is 1-A.
 Alpha  occ. eigenvalues --  -20.59205 -20.52770 -15.58430 -11.37054 -11.28807
 Alpha  occ. eigenvalues --   -1.45094  -1.35333  -1.22206  -0.97738  -0.80902
 Alpha  occ. eigenvalues --   -0.73478  -0.71256  -0.67489  -0.62523  -0.62056
 Alpha  occ. eigenvalues --   -0.55982  -0.55604  -0.47161  -0.46256  -0.42218
 Alpha virt. eigenvalues --    0.11110   0.15210   0.16709   0.19414   0.20656
 Alpha virt. eigenvalues --    0.24438   0.30184   0.31955   0.35722   0.41956
 Alpha virt. eigenvalues --    0.43392   0.44972   0.47733   0.49639   0.52856

 Mulliken charges:
               1
     1  N   -0.359012
     2  H    0.134614
     3  C   -0.033814
     4  C    0.492554
     5  H    0.084374
     6  H    0.088997
     7  O   -0.450980
     8  O   -0.345963
     9  H    0.138766
    10  H    0.250466
 Sum of Mulliken charges =  -0.00000

 Dipole moment (field-independent basis, Debye):
    X=             -5.8829    Y=             -0.7068    Z=             -0.0095  Tot=              5.9252
 Quadrupole moment (field-independent basis, Debye-Ang):
   XX=            -31.8661   YY=            -30.9721   ZZ=            -26.9291
   XY=              1.7396   XZ=              0.5537   YZ=             -0.4707

 70052\MP4DQ=-284.2323165\MP4SDQ=-284.245209\CCSD=-284.2419714\CCSD(T)=
 Normal termination of Gaussian 16 at Thu Apr 15 22:38:33 2021.
