 Gaussian 16, Revision C.01,
 Gaussian 16:  ES64L-G16RevC.01  3-Jul-2019

 -------------------
 #p CCSD(T)=FULL/gen
 -------------------

 --------------------------
 start best geom PCCP paper
 --------------------------
 Symbolic Z-matrix:
 Charge =  0 Multiplicity = 1

                         Standard orientation:
 ---------------------------------------------------------------------
 Center     Atomic      Atomic             Coordinates (Angstroms)
 Number     Number       Type             X           Y           Z
 ---------------------------------------------------------------------
      1          6           0        0.618518   -0.113452    0.015582
      2          8           0        0.629857    1.232314    0.102216
      3          8           0        1.611391   -0.762918   -0.179712
      4          1           0        1.543352    1.512541   -0.033863
      5          6           0       -0.754494   -0.683284    0.258311
      6          7           0       -1.797230    0.162725   -0.300561
      7          1           0       -0.825344   -0.835413    1.343137
      8          1           0       -0.780740   -1.661095   -0.214728
      9          1           0       -2.709920   -0.223225   -0.105836
     10          1           0       -1.760866    1.093359    0.091830
 ---------------------------------------------------------------------

 SCF Done:  E(RHF) =  -282.944845668     A.U. after   13 cycles
 E2 =    -0.1269740141D+01 EUMP2 =    -0.28421458580946D+03
 CCSD(T)
 CCSD(T)= -0.28428482333D+03

 The electronic state is 1-A.
 Alpha  occ. eigenvalues --  -20.61273 -20.54607 -15.55074 -11.38426 -11.27520
 Alpha  occ. eigenvalues --   -1.46950  -1.36415  -1.19681  -0.97618  -0.82632
 Alpha  occ. eigenvalues --   -0.71437  -0.68805  -0.66872  -0.64698  -0.59893
 Alpha  occ. eigenvalues --   -0.58266  -0.55678  -0.48703  -0.45764  -0.40529
 Alpha virt. eigenvalues --    0.12861   0.15765   0.17838   0.18133   0.20277
 Alpha virt. eigenvalues --    0.23317   0.31362   0.33204   0.35446   0.42085
 Alpha virt. eigenvalues --    0.45759   0.46276   0.46713   0.51221   0.53566

 Mulliken charges:
               1
     1  C    0.514955
     2  O   -0.369402
     3  O   -0.456062
     4  H    0.243211
     5  C    0.004134
     6  N   -0.311845
     7  H    0.048013
     8  H    0.092080
     9  H    0.108135
    10  H    0.126781
 Sum of Mulliken charges =  -0.00000

 Dipole moment (field-independent basis, Debye):
    X=             -1.8656    Y=              1.1354    Z=              1.5695  Tot=              2.6894
 Quadrupole moment (field-independent basis, Debye-Ang):
   XX=            -28.1247   YY=            -28.4285   ZZ=            -30.7164
   XY=              6.0939   XZ=             -1.8941   YZ=             -0.2860

 15\CCSD=-284.2390146\CCSD(T)=-284.2848233\RMSD=5.915e-09\PG=C01 [X(C2H
 Normal termination of Gaussian 16 at Thu Apr 15 21:06:13 2021.
