 Gaussian 16, Revision C.01,
 Gaussian 16:  ES64L-G16RevC.01  3-Jul-2019

 -------------------
 #p CCSD(T)=FULL/gen
 -------------------

 --------------------------
 start best geom PCCP paper
 --------------------------
 Symbolic Z-matrix:
 Charge =  0 Multiplicity = 1

                         Standard orientation:
 ---------------------------------------------------------------------
 Center     Atomic      Atomic             Coordinates (Angstroms)
 Number     Number       Type             X           Y           Z
 ---------------------------------------------------------------------
      1          6           0        0.533710    0.102893    0.014867
      2          8           0        1.632185   -0.670799   -0.066880
      3          8           0        0.575034    1.304539    0.045254
      4          1           0        2.393950   -0.078239   -0.074783
      5          6           0       -0.719436   -0.723120    0.103930
      6          7           0       -1.876755    0.096522   -0.192365
      7          1           0       -0.714656   -1.160119    1.109923
      8          1           0       -0.636201   -1.548521   -0.602525
      9          1           0       -2.714348   -0.276671    0.227657
     10          1           0       -1.734852    1.039339    0.146516
 ---------------------------------------------------------------------

 SCF Done:  E(RHF) =  -282.946922553     A.U. after   13 cycles
 E2 =    -0.1269972068D+01 EUMP2 =    -0.28421689462084D+03
 CCSD(T)
 CCSD(T)= -0.28428703878D+03

 The electronic state is 1-A.
 Alpha  occ. eigenvalues --  -20.61488 -20.55112 -15.54223 -11.38736 -11.27439
 Alpha  occ. eigenvalues --   -1.47275  -1.36921  -1.19144  -0.98046  -0.81316
 Alpha  occ. eigenvalues --   -0.72058  -0.70915  -0.66970  -0.63086  -0.60114
 Alpha  occ. eigenvalues --   -0.57525  -0.56265  -0.48940  -0.45985  -0.40139
 Alpha virt. eigenvalues --    0.13503   0.15114   0.17347   0.18657   0.21850
 Alpha virt. eigenvalues --    0.22877   0.31614   0.32790   0.36150   0.40603
 Alpha virt. eigenvalues --    0.45032   0.47479   0.49358   0.50322   0.55390

 Mulliken charges:
               1
     1  C    0.520139
     2  O   -0.362751
     3  O   -0.464850
     4  H    0.243112
     5  C    0.012299
     6  N   -0.318306
     7  H    0.052823
     8  H    0.073440
     9  H    0.106906
    10  H    0.137187
 Sum of Mulliken charges =  -0.00000

 Dipole moment (field-independent basis, Debye):
    X=              0.0913    Y=             -1.7398    Z=              1.3224  Tot=              2.1873
 Quadrupole moment (field-independent basis, Debye-Ang):
   XX=            -23.3333   YY=            -33.0289   ZZ=            -30.1689
   XY=              1.1734   XZ=             -3.2981   YZ=              0.1006

 \CCSD=-284.2412048\CCSD(T)=-284.2870388\RMSD=6.163e-09\PG=C01 [X(C2H5N
 Normal termination of Gaussian 16 at Thu Apr 15 17:54:56 2021.
