 Gaussian 16, Revision C.01,
 Gaussian 16:  ES64L-G16RevC.01  3-Jul-2019

 --------------
 #p CCSD(T)/gen
 --------------

 --------------------------
 start best geom PCCP paper
 --------------------------
 Symbolic Z-matrix:
 Charge =  0 Multiplicity = 1

                         Standard orientation:
 ---------------------------------------------------------------------
 Center     Atomic      Atomic             Coordinates (Angstroms)
 Number     Number       Type             X           Y           Z
 ---------------------------------------------------------------------
      1          6           0       -0.000000    0.635900   -0.000000
      2          8           0       -1.323949    0.381124   -0.000000
      3          8           0        0.447609    1.752947   -0.000000
      4          1           0       -1.766360    1.239435   -0.000000
      5          6           0        0.856429   -0.616662    0.000000
      6          7           0        0.200424   -1.903701    0.000000
      7          1           0        1.506780   -0.534947    0.870775
      8          1           0        1.506780   -0.534947   -0.870775
      9          1           0       -0.389012   -2.015816   -0.812151
     10          1           0       -0.389012   -2.015816    0.812151
 ---------------------------------------------------------------------

 SCF Done:  E(RHF) =  -282.946497281     A.U. after   13 cycles
 E2 =    -0.1026829747D+01 EUMP2 =    -0.28397332702829D+03
 CCSD(T)
 CCSD(T)= -0.28403300910D+03

 The electronic state is 1-A'.
 Alpha  occ. eigenvalues --  -20.61652 -20.54580 -15.55109 -11.38370 -11.27572
 Alpha  occ. eigenvalues --   -1.47139  -1.36505  -1.19906  -0.97305  -0.83095
 Alpha  occ. eigenvalues --   -0.70819  -0.69850  -0.69233  -0.62951  -0.59607
 Alpha  occ. eigenvalues --   -0.58080  -0.54562  -0.48431  -0.48061  -0.40241
 Alpha virt. eigenvalues --    0.13077   0.16320   0.16471   0.17683   0.19014
 Alpha virt. eigenvalues --    0.25555   0.30661   0.34495   0.37130   0.42845
 Alpha virt. eigenvalues --    0.45224   0.45296   0.46635   0.48432   0.53310

 Mulliken charges:
               1
     1  C    0.494988
     2  O   -0.367374
     3  O   -0.463635
     4  H    0.243087
     5  C   -0.020853
     6  N   -0.297790
     7  H    0.092569
     8  H    0.092569
     9  H    0.113219
    10  H    0.113219
 Sum of Mulliken charges =  -0.00000

 Dipole moment (field-independent basis, Debye):
    X=             -1.7892    Y=             -1.0115    Z=             -0.0000  Tot=              2.0553
 Quadrupole moment (field-independent basis, Debye-Ang):
   XX=            -27.6331   YY=            -36.6748   ZZ=            -27.0107
   XY=             -2.2244   XZ=             -0.0000   YZ=             -0.0000

 Normal termination of Gaussian 16 at Thu Apr 15 14:05:04 2021.
