 Gaussian 16, Revision C.01,
 Gaussian 16:  ES64L-G16RevC.01  3-Jul-2019

 -------------------
 #p CCSD(T)=FULL/gen
 -------------------

 --------------------------
 start best geom PCCP paper
 --------------------------
 Symbolic Z-matrix:
 Charge =  0 Multiplicity = 1

                         Standard orientation:
 ---------------------------------------------------------------------
 Center     Atomic      Atomic             Coordinates (Angstroms)
 Number     Number       Type             X           Y           Z
 ---------------------------------------------------------------------
      1          6           0       -0.000000    0.573396    0.000000
      2          8           0        0.957640    1.531040    0.000000
      3          8           0       -1.156728    0.877678    0.000000
      4          1           0        1.833849    1.134152   -0.000000
      5          6           0        0.517981   -0.858483   -0.000000
      6          7           0       -0.496418   -1.881566   -0.000000
      7          1           0        1.159024   -0.981844    0.876153
      8          1           0        1.159024   -0.981844   -0.876153
      9          1           0       -1.096075   -1.779366    0.807682
     10          1           0       -1.096075   -1.779366   -0.807682
 ---------------------------------------------------------------------

 SCF Done:  E(RHF) =  -282.940484082     A.U. after   13 cycles
 E2 =    -0.1270607585D+01 EUMP2 =    -0.28421109166652D+03
 CCSD(T)
 CCSD(T)= -0.28428155088D+03

 The electronic state is 1-A'.
 Alpha  occ. eigenvalues --  -20.61421 -20.54599 -15.55421 -11.38242 -11.28783
 Alpha  occ. eigenvalues --   -1.46528  -1.36987  -1.20404  -0.97380  -0.83206
 Alpha  occ. eigenvalues --   -0.73648  -0.70337  -0.66972  -0.62907  -0.60515
 Alpha  occ. eigenvalues --   -0.58761  -0.54548  -0.48527  -0.46692  -0.41434
 Alpha virt. eigenvalues --    0.11599   0.14650   0.15954   0.19008   0.19537
 Alpha virt. eigenvalues --    0.24355   0.31299   0.33134   0.34824   0.40614
 Alpha virt. eigenvalues --    0.45194   0.45612   0.46370   0.50657   0.52888

 Mulliken charges:
               1
     1  C    0.487537
     2  O   -0.321377
     3  O   -0.431667
     4  H    0.219596
     5  C   -0.051272
     6  N   -0.296555
     7  H    0.077781
     8  H    0.077781
     9  H    0.119087
    10  H    0.119087
 Sum of Mulliken charges =  -0.00000

 Dipole moment (field-independent basis, Debye):
    X=              3.0033    Y=             -1.5962    Z=              0.0000  Tot=              3.4011
 Quadrupole moment (field-independent basis, Debye-Ang):
   XX=            -26.3742   YY=            -38.5257   ZZ=            -27.0476
   XY=              3.9867   XZ=             -0.0000   YZ=             -0.0000

 55182\CCSD(T)=-284.2815509\RMSD=6.429e-09\PG=CS [SG(C2H1N1O2),X(H4)]\\
 Normal termination of Gaussian 16 at Thu Apr 15 13:38:12 2021.
