 Gaussian 16, Revision C.01,
 Gaussian 16:  ES64L-G16RevC.01  3-Jul-2019

 -------------------
 #p CCSD(T)=FULL/gen
 -------------------

 --------------------------
 start best geom PCCP paper
 --------------------------
 Symbolic Z-matrix:
 Charge =  0 Multiplicity = 1

                         Standard orientation:
 ---------------------------------------------------------------------
 Center     Atomic      Atomic             Coordinates (Angstroms)
 Number     Number       Type             X           Y           Z
 ---------------------------------------------------------------------
      1          6           0       -0.000000    0.549747   -0.000000
      2          8           0        0.985218    1.470653   -0.000000
      3          8           0       -1.167485    0.837818    0.000000
      4          1           0        0.562653    2.338326   -0.000000
      5          6           0        0.564972   -0.854997   -0.000000
      6          7           0       -0.413127   -1.914567    0.000000
      7          1           0        1.214211   -0.944801    0.871558
      8          1           0        1.214211   -0.944801   -0.871558
      9          1           0       -1.015438   -1.841513    0.808581
     10          1           0       -1.015438   -1.841513   -0.808581
 ---------------------------------------------------------------------

 SCF Done:  E(RHF) =  -282.949713665     A.U. after   13 cycles
 E2 =    -0.1269426392D+01 EUMP2 =    -0.28421914005664D+03
 CCSD(T)
 CCSD(T)= -0.28428939085D+03

 The electronic state is 1-A'.
 Alpha  occ. eigenvalues --  -20.61357 -20.55084 -15.54706 -11.38325 -11.27518
 Alpha  occ. eigenvalues --   -1.47062  -1.36736  -1.19634  -0.97831  -0.81606
 Alpha  occ. eigenvalues --   -0.70927  -0.69887  -0.69576  -0.62970  -0.60207
 Alpha  occ. eigenvalues --   -0.58659  -0.53536  -0.48908  -0.46649  -0.41055
 Alpha virt. eigenvalues --    0.13728   0.15408   0.16693   0.18258   0.19446
 Alpha virt. eigenvalues --    0.25214   0.32122   0.33504   0.35699   0.41386
 Alpha virt. eigenvalues --    0.45111   0.45774   0.47026   0.50742   0.54171

 Mulliken charges:
               1
     1  C    0.500103
     2  O   -0.364247
     3  O   -0.461973
     4  H    0.241362
     5  C   -0.023767
     6  N   -0.300137
     7  H    0.088626
     8  H    0.088626
     9  H    0.115703
    10  H    0.115703
 Sum of Mulliken charges =  -0.00000

 Dipole moment (field-independent basis, Debye):
    X=              1.0189    Y=              0.6914    Z=              0.0000  Tot=              1.2313
 Quadrupole moment (field-independent basis, Debye-Ang):
   XX=            -32.8218   YY=            -29.7057   ZZ=            -27.0568
   XY=              2.7752   XZ=             -0.0000   YZ=             -0.0000

 284.2340968\MP4SDQ=-284.2467363\CCSD=-284.2435887\CCSD(T)=-284.2893908
 Normal termination of Gaussian 16 at Thu Apr 15 12:15:02 2021.
