 Gaussian 16, Revision C.01,
 Gaussian 16:  ES64L-G16RevC.01  3-Jul-2019

 ----------
 #p MP2/gen
 ----------

 ------
 VII_SP
 ------
 Symbolic Z-matrix:
 Charge =  0 Multiplicity = 1

                         Standard orientation:
 ---------------------------------------------------------------------
 Center     Atomic      Atomic             Coordinates (Angstroms)
 Number     Number       Type             X           Y           Z
 ---------------------------------------------------------------------
      1          6           0        0.000000    0.678907    0.000000
      2          8           0       -1.337854    0.533471    0.000000
      3          8           0        0.506518    1.764722    0.000000
      4          1           0       -1.547449   -0.408206   -0.000000
      5          6           0        0.827086   -0.604884   -0.000000
      6          7           0        0.142184   -1.872117   -0.000000
      7          1           0        1.477562   -0.542869    0.871458
      8          1           0        1.477562   -0.542869   -0.871458
      9          1           0       -0.357397   -2.115457    0.838184
     10          1           0       -0.357397   -2.115457   -0.838184
 ---------------------------------------------------------------------

 SCF Done:  E(RHF) =  -282.937312376     A.U. after   13 cycles
 E2 =    -0.1028832997D+01 EUMP2 =    -0.28396614537248D+03

 The electronic state is 1-A'.
 Alpha  occ. eigenvalues --  -20.60972 -20.53518 -15.57450 -11.37710 -11.28750
 Alpha  occ. eigenvalues --   -1.46149  -1.36267  -1.21724  -0.97653  -0.82754
 Alpha  occ. eigenvalues --   -0.74138  -0.72336  -0.66821  -0.63236  -0.62001
 Alpha  occ. eigenvalues --   -0.56699  -0.55759  -0.48306  -0.47251  -0.40607
 Alpha virt. eigenvalues --    0.11036   0.15998   0.16090   0.17506   0.19844
 Alpha virt. eigenvalues --    0.24588   0.30838   0.33172   0.36689   0.43636
 Alpha virt. eigenvalues --    0.43918   0.44902   0.46266   0.47510   0.51517

 Mulliken charges:
               1
     1  C    0.470312
     2  O   -0.327673
     3  O   -0.439627
     4  H    0.215347
     5  C   -0.003422
     6  N   -0.340510
     7  H    0.094894
     8  H    0.094894
     9  H    0.117893
    10  H    0.117893
 Sum of Mulliken charges =  -0.00000

 Dipole moment (field-independent basis, Debye):
    X=             -0.9963    Y=             -4.5753    Z=             -0.0000  Tot=              4.6825
 Quadrupole moment (field-independent basis, Debye-Ang):
   XX=            -29.5915   YY=            -37.1149   ZZ=            -26.6992
   XY=              3.1567   XZ=              0.0000   YZ=             -0.0000

 Normal termination of Gaussian 16 at Fri Jan 15 18:04:58 2021.
