 Gaussian 16, Revision C.01,
 Gaussian 16:  ES64L-G16RevC.01  3-Jul-2019

 ----------
 #p MP2/gen
 ----------

 -------
 VIII_SP
 -------
 Symbolic Z-matrix:
 Charge =  0 Multiplicity = 1

                         Standard orientation:
 ---------------------------------------------------------------------
 Center     Atomic      Atomic             Coordinates (Angstroms)
 Number     Number       Type             X           Y           Z
 ---------------------------------------------------------------------
      1          6           0        0.546143    0.148212    0.012628
      2          8           0        1.729714   -0.499968   -0.044362
      3          8           0        0.511357    1.343991    0.036745
      4          1           0        1.592593   -1.450896   -0.085742
      5          6           0       -0.679769   -0.738038    0.076616
      6          7           0       -1.874850    0.037759   -0.172157
      7          1           0       -0.657798   -1.217003    1.063110
      8          1           0       -0.576213   -1.530916   -0.669685
      9          1           0       -2.658726   -0.288884    0.371019
     10          1           0       -1.702724    1.010149    0.051861
 ---------------------------------------------------------------------

 SCF Done:  E(RHF) =  -282.937484757     A.U. after   13 cycles
 E2 =    -0.1028048111D+01 EUMP2 =    -0.28396553286814D+03

 The electronic state is 1-A.
 Alpha  occ. eigenvalues --  -20.61627 -20.54793 -15.54736 -11.38785 -11.28709
 Alpha  occ. eigenvalues --   -1.46888  -1.37326  -1.19794  -0.97503  -0.83358
 Alpha  occ. eigenvalues --   -0.74305  -0.67899  -0.67106  -0.65227  -0.59970
 Alpha  occ. eigenvalues --   -0.58150  -0.56141  -0.48709  -0.45772  -0.40822
 Alpha virt. eigenvalues --    0.11517   0.14049   0.16967   0.19921   0.20986
 Alpha virt. eigenvalues --    0.22825   0.30716   0.31831   0.35408   0.40826
 Alpha virt. eigenvalues --    0.44782   0.46931   0.49276   0.51835   0.54072

 Mulliken charges:
               1
     1  C    0.508137
     2  O   -0.317978
     3  O   -0.435774
     4  H    0.220471
     5  C   -0.003410
     6  N   -0.323026
     7  H    0.055549
     8  H    0.042436
     9  H    0.108490
    10  H    0.145105
 Sum of Mulliken charges =  -0.00000

 Dipole moment (field-independent basis, Debye):
    X=             -1.2805    Y=             -4.1171    Z=              1.2702  Tot=              4.4948
 Quadrupole moment (field-independent basis, Debye-Ang):
   XX=            -30.9635   YY=            -28.4072   ZZ=            -29.9469
   XY=             -3.6560   XZ=             -3.4812   YZ=              0.0407

 Normal termination of Gaussian 16 at Fri Jan 15 10:40:59 2021.
