 Gaussian 16, Revision C.01,
 Gaussian 16:  ES64L-G16RevC.01  3-Jul-2019

 ----------
 #p MP2/gen
 ----------

 --
 SP
 --
 Symbolic Z-matrix:
 Charge =  0 Multiplicity = 1

                         Standard orientation:
 ---------------------------------------------------------------------
 Center     Atomic      Atomic             Coordinates (Angstroms)
 Number     Number       Type             X           Y           Z
 ---------------------------------------------------------------------
      1          6           0       -2.500543    0.312408   -0.141422
      2          1           0       -2.726343    1.039434   -0.926055
      3          1           0       -3.073747    0.609693    0.739544
      4          6           0       -1.039554    0.503007    0.225721
      5          8           0       -0.553284    1.633629    0.341752
      6          7           0       -0.337142   -0.621731    0.419705
      7          1           0       -0.842252   -1.486408    0.283335
      8          6           0        1.027736   -0.614819    0.917696
      9          1           0        1.091736    0.070268    1.768468
     10          1           0        1.285916   -1.618025    1.244764
     11          6           0        2.061028   -0.183939   -0.125162
     12          8           0        2.998298   -0.878903   -0.427997
     13          8           0        1.864217    1.025791   -0.655727
     14          1           0        1.054424    1.432639   -0.266375
     15          7           0       -2.815726   -1.072333   -0.484191
     16          1           0       -3.769104   -1.301009   -0.238694
     17          1           0       -2.716411   -1.232223   -1.478813
 ---------------------------------------------------------------------

 SCF Done:  E(RHF) =  -489.836183477     A.U. after   14 cycles
 E2 =    -0.1790126485D+01 EUMP2 =    -0.49162630996214D+03

 The electronic state is 1-A.
 Alpha  occ. eigenvalues --  -20.57928 -20.54389 -20.52837 -15.61121 -15.58399
 Alpha  occ. eigenvalues --  -11.37475 -11.37082 -11.29522 -11.29519  -1.44275
 Alpha  occ. eigenvalues --   -1.40723  -1.34454  -1.26780  -1.21867  -1.02714
 Alpha  occ. eigenvalues --   -0.96323  -0.82943  -0.80152  -0.74740  -0.72664
 Alpha  occ. eigenvalues --   -0.71044  -0.68754  -0.64920  -0.63993  -0.61424
 Alpha  occ. eigenvalues --   -0.61172  -0.59258  -0.57492  -0.55317  -0.54305
 Alpha  occ. eigenvalues --   -0.47274  -0.46047  -0.45725  -0.43258  -0.40939
 Alpha virt. eigenvalues --    0.10760   0.13637   0.15067   0.15614   0.17808
 Alpha virt. eigenvalues --    0.18488   0.18974   0.22222   0.24078   0.26162
 Alpha virt. eigenvalues --    0.29653   0.30478   0.31462   0.32152   0.34973

 Mulliken charges:
               1
     1  C   -0.024654
     2  H    0.106766
     3  H    0.098419
     4  C    0.406049
     5  O   -0.536847
     6  N   -0.245617
     7  H    0.177224
     8  C   -0.073406
     9  H    0.100589
    10  H    0.121764
    11  C    0.457691
    12  O   -0.424881
    13  O   -0.356693
    14  H    0.274612
    15  N   -0.362342
    16  H    0.141648
    17  H    0.139677
 Sum of Mulliken charges =  -0.00000

 Dipole moment (field-independent basis, Debye):
    X=             -7.3686    Y=             -2.2208    Z=              1.3244  Tot=              7.8091
 Quadrupole moment (field-independent basis, Debye-Ang):
   XX=            -55.5599   YY=            -57.6590   ZZ=            -50.2588
   XY=              5.1014   XZ=              8.5254   YZ=             -0.6271

 Normal termination of Gaussian 16 at Sun Jan 10 08:50:34 2021.
