 Gaussian 16, Revision C.01,
 Gaussian 16:  ES64L-G16RevC.01  3-Jul-2019

 ---------------
 #p MP2=full/gen
 ---------------

 --
 SP
 --
 Symbolic Z-matrix:
 Charge =  0 Multiplicity = 1

                         Standard orientation:
 ---------------------------------------------------------------------
 Center     Atomic      Atomic             Coordinates (Angstroms)
 Number     Number       Type             X           Y           Z
 ---------------------------------------------------------------------
      1          6           0       -2.500543    0.312408   -0.141422
      2          1           0       -2.726343    1.039434   -0.926055
      3          1           0       -3.073747    0.609693    0.739544
      4          6           0       -1.039554    0.503007    0.225721
      5          8           0       -0.553284    1.633629    0.341752
      6          7           0       -0.337142   -0.621731    0.419705
      7          1           0       -0.842252   -1.486408    0.283335
      8          6           0        1.027736   -0.614819    0.917696
      9          1           0        1.091736    0.070268    1.768468
     10          1           0        1.285916   -1.618025    1.244764
     11          6           0        2.061028   -0.183939   -0.125162
     12          8           0        2.998298   -0.878903   -0.427997
     13          8           0        1.864217    1.025791   -0.655727
     14          1           0        1.054424    1.432639   -0.266375
     15          7           0       -2.815726   -1.072333   -0.484191
     16          1           0       -3.769104   -1.301009   -0.238694
     17          1           0       -2.716411   -1.232223   -1.478813
 ---------------------------------------------------------------------

 SCF Done:  E(RHF) =  -489.836614369     A.U. after   14 cycles
 E2 =    -0.2236907242D+01 EUMP2 =    -0.49207352161184D+03

 The electronic state is 1-A.
 Alpha  occ. eigenvalues --  -20.57937 -20.54396 -20.52847 -15.61120 -15.58402
 Alpha  occ. eigenvalues --  -11.37472 -11.37079 -11.29521 -11.29518  -1.44277
 Alpha  occ. eigenvalues --   -1.40724  -1.34457  -1.26783  -1.21868  -1.02715
 Alpha  occ. eigenvalues --   -0.96325  -0.82943  -0.80152  -0.74740  -0.72665
 Alpha  occ. eigenvalues --   -0.71044  -0.68755  -0.64920  -0.63995  -0.61424
 Alpha  occ. eigenvalues --   -0.61174  -0.59259  -0.57493  -0.55319  -0.54307
 Alpha  occ. eigenvalues --   -0.47276  -0.46049  -0.45727  -0.43262  -0.40943
 Alpha virt. eigenvalues --    0.10756   0.13633   0.15063   0.15609   0.17805
 Alpha virt. eigenvalues --    0.18483   0.18965   0.22215   0.24071   0.26132
 Alpha virt. eigenvalues --    0.29583   0.30424   0.31388   0.32112   0.34880

 Mulliken charges:
               1
     1  C    0.009925
     2  H    0.092824
     3  H    0.084145
     4  C    0.448919
     5  O   -0.555081
     6  N   -0.270598
     7  H    0.169013
     8  C   -0.038375
     9  H    0.085315
    10  H    0.107377
    11  C    0.492860
    12  O   -0.443212
    13  O   -0.367710
    14  H    0.271715
    15  N   -0.355442
    16  H    0.134929
    17  H    0.133397
 Sum of Mulliken charges =  -0.00000

 Dipole moment (field-independent basis, Debye):
    X=             -7.3694    Y=             -2.2212    Z=              1.3242  Tot=              7.8099
 Quadrupole moment (field-independent basis, Debye-Ang):
   XX=            -55.5664   YY=            -57.6604   ZZ=            -50.2595
   XY=              5.1057   XZ=              8.5249   YZ=             -0.6273

 Normal termination of Gaussian 16 at Sun Jan 10 08:41:06 2021.
