 Gaussian 16, Revision C.01,
 Gaussian 16:  ES64L-G16RevC.01  3-Jul-2019

 ---------------
 #p MP2=full/gen
 ---------------

 --
 SP
 --
 Symbolic Z-matrix:
 Charge =  0 Multiplicity = 1

                         Standard orientation:
 ---------------------------------------------------------------------
 Center     Atomic      Atomic             Coordinates (Angstroms)
 Number     Number       Type             X           Y           Z
 ---------------------------------------------------------------------
      1          6           0       -2.675649    0.161142    0.104735
      2          1           0       -3.078387    0.007412    1.108370
      3          1           0       -3.401668   -0.260584   -0.596703
      4          6           0       -1.429171   -0.707700    0.012359
      5          8           0       -1.502662   -1.927298   -0.079807
      6          7           0       -0.259564   -0.036424    0.059674
      7          1           0       -0.273908    0.969933    0.154416
      8          6           0        0.991721   -0.738217    0.019726
      9          1           0        1.114712   -1.402778    0.880616
     10          1           0        1.062680   -1.374331   -0.866921
     11          6           0        2.126377    0.249760    0.007093
     12          8           0        2.008010    1.450648    0.040887
     13          8           0        3.315828   -0.379042   -0.043109
     14          1           0        3.995712    0.310505   -0.043797
     15          7           0       -2.394543    1.582976   -0.080067
     16          1           0       -2.386652    1.826679   -1.062746
     17          1           0       -3.102826    2.152926    0.362274
 ---------------------------------------------------------------------

 SCF Done:  E(RHF) =  -489.840519431     A.U. after   14 cycles
 E2 =    -0.2231946871D+01 EUMP2 =    -0.49207246630188D+03

 The electronic state is 1-A.
 Alpha  occ. eigenvalues --  -20.62274 -20.56081 -20.50855 -15.57828 -15.56129
 Alpha  occ. eigenvalues --  -11.39889 -11.34137 -11.28682 -11.27041  -1.47928
 Alpha  occ. eigenvalues --   -1.37819  -1.37291  -1.23993  -1.19611  -1.02462
 Alpha  occ. eigenvalues --   -0.94743  -0.83616  -0.79157  -0.72426  -0.71339
 Alpha  occ. eigenvalues --   -0.68888  -0.67644  -0.66402  -0.65097  -0.61133
 Alpha  occ. eigenvalues --   -0.60543  -0.58636  -0.57455  -0.56398  -0.50610
 Alpha  occ. eigenvalues --   -0.49594  -0.47053  -0.43851  -0.40533  -0.39407
 Alpha virt. eigenvalues --    0.12633   0.14034   0.16019   0.16634   0.17016
 Alpha virt. eigenvalues --    0.18418   0.20081   0.22365   0.23824   0.25640
 Alpha virt. eigenvalues --    0.31176   0.31671   0.33306   0.33977   0.37379

 Mulliken charges:
               1
     1  C   -0.034067
     2  H    0.090190
     3  H    0.097496
     4  C    0.378022
     5  O   -0.502249
     6  N   -0.242549
     7  H    0.182507
     8  C   -0.011724
     9  H    0.099148
    10  H    0.105429
    11  C    0.464517
    12  O   -0.443344
    13  O   -0.343679
    14  H    0.247149
    15  N   -0.348519
    16  H    0.130690
    17  H    0.130982
 Sum of Mulliken charges =  -0.00000

 Dipole moment (field-independent basis, Debye):
    X=             -0.0570    Y=              2.5028    Z=             -0.2118  Tot=              2.5124
 Quadrupole moment (field-independent basis, Debye-Ang):
   XX=            -38.0522   YY=            -63.6699   ZZ=            -49.9684
   XY=            -10.2568   XZ=             -0.0536   YZ=             -1.6395

 Normal termination of Gaussian 16 at Sun Jan 10 09:59:46 2021.
