 Gaussian 16, Revision C.01,
 Gaussian 16:  ES64L-G16RevC.01  3-Jul-2019

 ---------------
 #p MP2=full/gen
 ---------------

 --
 SP
 --
 Symbolic Z-matrix:
 Charge =  0 Multiplicity = 1

                         Standard orientation:
 ---------------------------------------------------------------------
 Center     Atomic      Atomic             Coordinates (Angstroms)
 Number     Number       Type             X           Y           Z
 ---------------------------------------------------------------------
      1          6           0       -2.675649    0.161142    0.104735
      2          1           0       -3.078387    0.007412    1.108370
      3          1           0       -3.401668   -0.260584   -0.596703
      4          6           0       -1.429171   -0.707700    0.012359
      5          8           0       -1.502662   -1.927298   -0.079807
      6          7           0       -0.259564   -0.036424    0.059674
      7          1           0       -0.273908    0.969933    0.154416
      8          6           0        0.991721   -0.738217    0.019726
      9          1           0        1.114712   -1.402778    0.880616
     10          1           0        1.062680   -1.374331   -0.866921
     11          6           0        2.126377    0.249760    0.007093
     12          8           0        2.008010    1.450648    0.040887
     13          8           0        3.315828   -0.379042   -0.043109
     14          1           0        3.995712    0.310505   -0.043797
     15          7           0       -2.394543    1.582976   -0.080067
     16          1           0       -2.386652    1.826679   -1.062746
     17          1           0       -3.102826    2.152926    0.362274
 ---------------------------------------------------------------------

 SCF Done:  E(RHF) =  -489.840951546     A.U. after   14 cycles
 E2 =    -0.2231027434D+01 EUMP2 =    -0.49207197898066D+03

 The electronic state is 1-A.
 Alpha  occ. eigenvalues --  -20.62282 -20.56090 -20.50867 -15.57830 -15.56134
 Alpha  occ. eigenvalues --  -11.39885 -11.34137 -11.28682 -11.27040  -1.47929
 Alpha  occ. eigenvalues --   -1.37822  -1.37293  -1.23997  -1.19613  -1.02464
 Alpha  occ. eigenvalues --   -0.94745  -0.83617  -0.79158  -0.72425  -0.71340
 Alpha  occ. eigenvalues --   -0.68888  -0.67643  -0.66403  -0.65097  -0.61133
 Alpha  occ. eigenvalues --   -0.60546  -0.58638  -0.57458  -0.56401  -0.50611
 Alpha  occ. eigenvalues --   -0.49595  -0.47056  -0.43854  -0.40537  -0.39410
 Alpha virt. eigenvalues --    0.12628   0.14028   0.16017   0.16631   0.17012
 Alpha virt. eigenvalues --    0.18414   0.20078   0.22357   0.23814   0.25632
 Alpha virt. eigenvalues --    0.31127   0.31602   0.33228   0.33900   0.37327

 Mulliken charges:
               1
     1  C   -0.000918
     2  H    0.076054
     3  H    0.083645
     4  C    0.420787
     5  O   -0.519270
     6  N   -0.270357
     7  H    0.174876
     8  C    0.026107
     9  H    0.084183
    10  H    0.090628
    11  C    0.498599
    12  O   -0.462029
    13  O   -0.354315
    14  H    0.245012
    15  N   -0.341499
    16  H    0.124417
    17  H    0.124081
 Sum of Mulliken charges =  -0.00000

 Dipole moment (field-independent basis, Debye):
    X=             -0.0569    Y=              2.5039    Z=             -0.2117  Tot=              2.5135
 Quadrupole moment (field-independent basis, Debye-Ang):
   XX=            -38.0569   YY=            -63.6751   ZZ=            -49.9682
   XY=            -10.2590   XZ=             -0.0536   YZ=             -1.6395

 Normal termination of Gaussian 16 at Sun Jan 10 09:26:07 2021.
