 Gaussian 16, Revision C.01,
 Gaussian 16:  ES64L-G16RevC.01  3-Jul-2019

 ---------------
 #p mp2=full/gen
 ---------------

 --
 SP
 --
 Symbolic Z-matrix:
 Charge =  0 Multiplicity = 1

                         Standard orientation:
 ---------------------------------------------------------------------
 Center     Atomic      Atomic             Coordinates (Angstroms)
 Number     Number       Type             X           Y           Z
 ---------------------------------------------------------------------
      1          6           0        2.417194    0.810573    0.145998
      2          1           0        2.397196    1.209411    1.165464
      3          1           0        2.180801    1.645528   -0.518719
      4          6           0        1.316434   -0.244629    0.054681
      5          8           0        1.552638   -1.445429    0.045526
      6          7           0        0.050733    0.240841    0.017368
      7          1           0       -0.139037    1.231149    0.016258
      8          6           0       -1.082242   -0.644639    0.003808
      9          1           0       -1.069005   -1.303441   -0.868967
     10          1           0       -1.096219   -1.297019    0.881600
     11          6           0       -2.346529    0.171426   -0.019204
     12          8           0       -2.391939    1.378799   -0.023237
     13          8           0       -3.435763   -0.615045   -0.034876
     14          1           0       -4.206630   -0.028814   -0.048741
     15          7           0        3.749249    0.320461   -0.145660
     16          1           0        3.902256   -0.533909    0.380002
     17          1           0        3.802127    0.044999   -1.119862
 ---------------------------------------------------------------------

 SCF Done:  E(RHF) =  -489.839361208     A.U. after   14 cycles
 E2 =    -0.2230413616D+01 EUMP2 =    -0.49206977482325D+03

 The electronic state is 1-A.
 Alpha  occ. eigenvalues --  -20.63124 -20.56997 -20.52222 -15.59137 -15.54083
 Alpha  occ. eigenvalues --  -11.40816 -11.34978 -11.29593 -11.26934  -1.48844
 Alpha  occ. eigenvalues --   -1.38915  -1.38380  -1.24625  -1.18627  -1.03521
 Alpha  occ. eigenvalues --   -0.94042  -0.84047  -0.80624  -0.73102  -0.72248
 Alpha  occ. eigenvalues --   -0.69086  -0.67987  -0.67160  -0.65629  -0.61794
 Alpha  occ. eigenvalues --   -0.60299  -0.58998  -0.57553  -0.55685  -0.50925
 Alpha  occ. eigenvalues --   -0.50390  -0.48088  -0.44475  -0.40710  -0.40001
 Alpha virt. eigenvalues --    0.13050   0.14102   0.15242   0.16258   0.16636
 Alpha virt. eigenvalues --    0.17439   0.20048   0.22123   0.22582   0.25986
 Alpha virt. eigenvalues --    0.29699   0.31871   0.32913   0.34402   0.37315

 Mulliken charges:
               1
     1  C   -0.044246
     2  H    0.097050
     3  H    0.083298
     4  C    0.383481
     5  O   -0.496744
     6  N   -0.253199
     7  H    0.167250
     8  C   -0.012218
     9  H    0.106739
    10  H    0.105227
    11  C    0.468469
    12  O   -0.449090
    13  O   -0.339469
    14  H    0.249325
    15  N   -0.312761
    16  H    0.133674
    17  H    0.113214
 Sum of Mulliken charges =  -0.00000

 Dipole moment (field-independent basis, Debye):
    X=             -2.6283    Y=              0.8380    Z=             -0.2837  Tot=              2.7732
 Quadrupole moment (field-independent basis, Debye-Ang):
   XX=            -52.0210   YY=            -60.6413   ZZ=            -49.7713
   XY=              3.0902   XZ=             -1.2262   YZ=             -0.0498

 Normal termination of Gaussian 16 at Mon Jan 11 16:54:39 2021.
