 Gaussian 16, Revision C.01,
 Gaussian 16:  ES64L-G16RevC.01  3-Jul-2019

 ----------
 #p MP2/gen
 ----------

 --
 SP
 --
 Symbolic Z-matrix:
 Charge =  0 Multiplicity = 1

                         Standard orientation:
 ---------------------------------------------------------------------
 Center     Atomic      Atomic             Coordinates (Angstroms)
 Number     Number       Type             X           Y           Z
 ---------------------------------------------------------------------
      1          6           0        2.417194    0.810573    0.145998
      2          1           0        2.397196    1.209411    1.165464
      3          1           0        2.180801    1.645528   -0.518719
      4          6           0        1.316434   -0.244629    0.054681
      5          8           0        1.552638   -1.445429    0.045526
      6          7           0        0.050733    0.240841    0.017368
      7          1           0       -0.139037    1.231149    0.016258
      8          6           0       -1.082242   -0.644639    0.003808
      9          1           0       -1.069005   -1.303441   -0.868967
     10          1           0       -1.096219   -1.297019    0.881600
     11          6           0       -2.346529    0.171426   -0.019204
     12          8           0       -2.391939    1.378799   -0.023237
     13          8           0       -3.435763   -0.615045   -0.034876
     14          1           0       -4.206630   -0.028814   -0.048741
     15          7           0        3.749249    0.320461   -0.145660
     16          1           0        3.902256   -0.533909    0.380002
     17          1           0        3.802127    0.044999   -1.119862
 ---------------------------------------------------------------------

 SCF Done:  E(RHF) =  -489.839791965     A.U. after   14 cycles
 E2 =    -0.1794317909D+01 EUMP2 =    -0.49163410987445D+03

 The electronic state is 1-A.
 Alpha  occ. eigenvalues --  -20.63131 -20.57005 -20.52233 -15.59136 -15.54089
 Alpha  occ. eigenvalues --  -11.40811 -11.34977 -11.29592 -11.26934  -1.48844
 Alpha  occ. eigenvalues --   -1.38916  -1.38381  -1.24628  -1.18629  -1.03522
 Alpha  occ. eigenvalues --   -0.94044  -0.84047  -0.80624  -0.73101  -0.72248
 Alpha  occ. eigenvalues --   -0.69086  -0.67987  -0.67159  -0.65630  -0.61793
 Alpha  occ. eigenvalues --   -0.60300  -0.59001  -0.57556  -0.55687  -0.50926
 Alpha  occ. eigenvalues --   -0.50391  -0.48090  -0.44476  -0.40713  -0.40005
 Alpha virt. eigenvalues --    0.13044   0.14096   0.15241   0.16254   0.16629
 Alpha virt. eigenvalues --    0.17437   0.20045   0.22114   0.22580   0.25981
 Alpha virt. eigenvalues --    0.29636   0.31789   0.32832   0.34342   0.37278

 Mulliken charges:
               1
     1  C   -0.008736
     2  H    0.082567
     3  H    0.068175
     4  C    0.425131
     5  O   -0.514223
     6  N   -0.279403
     7  H    0.159704
     8  C    0.025321
     9  H    0.091820
    10  H    0.090361
    11  C    0.502643
    12  O   -0.467725
    13  O   -0.350334
    14  H    0.247203
    15  N   -0.306992
    16  H    0.127615
    17  H    0.106875
 Sum of Mulliken charges =  -0.00000

 Dipole moment (field-independent basis, Debye):
    X=             -2.6266    Y=              0.8387    Z=             -0.2838  Tot=              2.7718
 Quadrupole moment (field-independent basis, Debye-Ang):
   XX=            -52.0171   YY=            -60.6468   ZZ=            -49.7708
   XY=              3.0928   XZ=             -1.2262   YZ=             -0.0504

 Normal termination of Gaussian 16 at Mon Jan 11 16:40:58 2021.
