 Gaussian 09, Revision D.01,
 Gaussian 09:  ES64L-G09RevD.01 24-Apr-2013

 --------------
 #P CCSD(T) gen
 --------------

 --------------------------
 start best geom PCCP paper
 --------------------------
 Symbolic Z-matrix:
 Charge =  0 Multiplicity = 1

                         Standard orientation:
 ---------------------------------------------------------------------
 Center     Atomic      Atomic             Coordinates (Angstroms)
 Number     Number       Type             X           Y           Z
 ---------------------------------------------------------------------
      1          7           0       -1.777783    0.124928   -0.048772
      2          1           0       -2.176227    0.113925   -0.975812
      3          6           0       -0.642823   -0.786994    0.071611
      4          6           0        0.686110   -0.041625    0.003814
      5          1           0       -0.662886   -1.287754    1.038553
      6          1           0       -0.617441   -1.563047   -0.691946
      7          8           0        1.742553   -0.607441   -0.059578
      8          8           0        0.574514    1.288852    0.038515
      9          1           0       -2.512293   -0.090938    0.606942
     10          1           0       -0.382931    1.473747    0.079614
 ---------------------------------------------------------------------

 SCF Done:  E(RHF) =  -282.944594685     A.U. after   13 cycles
 E2 =    -0.1023967894D+01 EUMP2 =    -0.28396856257930D+03
 CCSD(T)
 CCSD(T)= -0.28402864405D+03

 The electronic state is 1-A.
 Alpha  occ. eigenvalues --  -20.59194 -20.52761 -15.58428 -11.37057 -11.28809
 Alpha  occ. eigenvalues --   -1.45091  -1.35330  -1.22204  -0.97736  -0.80901
 Alpha  occ. eigenvalues --   -0.73477  -0.71255  -0.67489  -0.62523  -0.62054
 Alpha  occ. eigenvalues --   -0.55980  -0.55601  -0.47159  -0.46254  -0.42214
 Alpha virt. eigenvalues --    0.11114   0.15212   0.16714   0.19417   0.20672
 Alpha virt. eigenvalues --    0.24442   0.30250   0.32025   0.35793   0.42056
 Alpha virt. eigenvalues --    0.43467   0.45101   0.47836   0.49717   0.52987

 Mulliken charges:
               1
     1  N   -0.365965
     2  H    0.141011
     3  C   -0.065144
     4  C    0.457336
     5  H    0.098589
     6  H    0.103133
     7  O   -0.432423
     8  O   -0.334952
     9  H    0.145298
    10  H    0.253118
 Sum of Mulliken charges =   0.00000

 Dipole moment (field-independent basis, Debye):
    X=             -5.8821    Y=             -0.7077    Z=             -0.0095  Tot=              5.9245
 Quadrupole moment (field-independent basis, Debye-Ang):
   XX=            -31.8631   YY=            -30.9699   ZZ=            -26.9291
   XY=              1.7396   XZ=              0.5537   YZ=             -0.4708

 \MP4DQ=-283.9762282\MP4SDQ=-283.9877452\CCSD=-283.9847217\CCSD(T)=-284
 Normal termination of Gaussian 09 at Fri Oct 14 00:31:29 2016.
