 Gaussian 09, Revision D.01,
 Gaussian 09:  ES64L-G09RevD.01 24-Apr-2013

 --------------
 #P CCSD(T) gen
 --------------

 --------------------------
 start best geom PCCP paper
 --------------------------
 Symbolic Z-matrix:
 Charge =  0 Multiplicity = 1

                         Standard orientation:
 ---------------------------------------------------------------------
 Center     Atomic      Atomic             Coordinates (Angstroms)
 Number     Number       Type             X           Y           Z
 ---------------------------------------------------------------------
      1          6           0        0.618518   -0.113452    0.015582
      2          8           0        0.629857    1.232314    0.102216
      3          8           0        1.611391   -0.762918   -0.179712
      4          1           0        1.543352    1.512541   -0.033863
      5          6           0       -0.754494   -0.683284    0.258311
      6          7           0       -1.797230    0.162725   -0.300561
      7          1           0       -0.825344   -0.835413    1.343137
      8          1           0       -0.780740   -1.661095   -0.214728
      9          1           0       -2.709920   -0.223225   -0.105836
     10          1           0       -1.760866    1.093359    0.091830
 ---------------------------------------------------------------------

 SCF Done:  E(RHF) =  -282.944637003     A.U. after   13 cycles
 E2 =    -0.1020007653D+01 EUMP2 =    -0.28396464465598D+03
 CCSD(T)
 CCSD(T)= -0.28402501418D+03

 The electronic state is 1-A.
 Alpha  occ. eigenvalues --  -20.61265 -20.54599 -15.55067 -11.38430 -11.27522
 Alpha  occ. eigenvalues --   -1.46950  -1.36414  -1.19679  -0.97617  -0.82632
 Alpha  occ. eigenvalues --   -0.71438  -0.68806  -0.66873  -0.64696  -0.59893
 Alpha  occ. eigenvalues --   -0.58264  -0.55675  -0.48703  -0.45762  -0.40525
 Alpha virt. eigenvalues --    0.12868   0.15768   0.17838   0.18137   0.20279
 Alpha virt. eigenvalues --    0.23319   0.31430   0.33263   0.35509   0.42171
 Alpha virt. eigenvalues --    0.45892   0.46315   0.46789   0.51302   0.53610

 Mulliken charges:
               1
     1  C    0.480466
     2  O   -0.358809
     3  O   -0.437244
     4  H    0.245661
     5  C   -0.028006
     6  N   -0.318870
     7  H    0.062165
     8  H    0.106230
     9  H    0.115090
    10  H    0.133318
 Sum of Mulliken charges =   0.00000

 Dipole moment (field-independent basis, Debye):
    X=             -1.8643    Y=              1.1348    Z=              1.5704  Tot=              2.6888
 Quadrupole moment (field-independent basis, Debye-Ang):
   XX=            -28.1233   YY=            -28.4271   ZZ=            -30.7165
   XY=              6.0930   XZ=             -1.8959   YZ=             -0.2862

 D=-283.9818169\CCSD(T)=-284.0250142\RMSD=3.263e-09\PG=C01 [X(C2H5N1O2)
 Normal termination of Gaussian 09 at Wed Oct 19 16:17:52 2016.
