 Gaussian 09, Revision D.01,
 Gaussian 09:  ES64L-G09RevD.01 24-Apr-2013

 -------------------
 #P CCSD(T)=Full gen
 -------------------

 --------------------------
 start best geom PCCP paper
 --------------------------
 Symbolic Z-matrix:
 Charge =  0 Multiplicity = 1

                         Standard orientation:
 ---------------------------------------------------------------------
 Center     Atomic      Atomic             Coordinates (Angstroms)
 Number     Number       Type             X           Y           Z
 ---------------------------------------------------------------------
      1          6           0        0.533710    0.102893    0.014867
      2          8           0        1.632185   -0.670799   -0.066880
      3          8           0        0.575034    1.304539    0.045254
      4          1           0        2.393950   -0.078239   -0.074783
      5          6           0       -0.719436   -0.723120    0.103930
      6          7           0       -1.876755    0.096522   -0.192365
      7          1           0       -0.714656   -1.160119    1.109923
      8          1           0       -0.636201   -1.548521   -0.602525
      9          1           0       -2.714348   -0.276671    0.227657
     10          1           0       -1.734852    1.039339    0.146516
 ---------------------------------------------------------------------

 SCF Done:  E(RHF) =  -282.946707177     A.U. after   13 cycles
 E2 =    -0.1270224107D+01 EUMP2 =    -0.28421693128345D+03
 CCSD(T)
 CCSD(T)= -0.28428671860D+03

 The electronic state is 1-A.
 Alpha  occ. eigenvalues --  -20.61481 -20.55104 -15.54215 -11.38740 -11.27440
 Alpha  occ. eigenvalues --   -1.47275  -1.36919  -1.19142  -0.98044  -0.81316
 Alpha  occ. eigenvalues --   -0.72059  -0.70916  -0.66971  -0.63084  -0.60114
 Alpha  occ. eigenvalues --   -0.57523  -0.56262  -0.48940  -0.45983  -0.40135
 Alpha virt. eigenvalues --    0.13509   0.15117   0.17348   0.18660   0.21853
 Alpha virt. eigenvalues --    0.22885   0.31670   0.32855   0.36220   0.40688
 Alpha virt. eigenvalues --    0.45161   0.47592   0.49385   0.50388   0.55480

 Mulliken charges:
               1
     1  C    0.485664
     2  O   -0.351982
     3  O   -0.445672
     4  H    0.245356
     5  C   -0.021122
     6  N   -0.324349
     7  H    0.067120
     8  H    0.087947
     9  H    0.113708
    10  H    0.143331
 Sum of Mulliken charges =   0.00000

 Dipole moment (field-independent basis, Debye):
    X=              0.0922    Y=             -1.7395    Z=              1.3235  Tot=              2.1877
 Quadrupole moment (field-independent basis, Debye-Ang):
   XX=            -23.3338   YY=            -33.0263   ZZ=            -30.1688
   XY=              1.1735   XZ=             -3.2999   YZ=              0.1005

 1\CCSD=-284.2416146\CCSD(T)=-284.2867186\RMSD=3.389e-09\PG=C01 [X(C2H5
 Normal termination of Gaussian 09 at Sat Oct 15 01:53:02 2016.
