 Gaussian 09, Revision D.01,
 Gaussian 09:  ES64L-G09RevD.01 24-Apr-2013

 -------------------
 #P CCSD(T)=Full gen
 -------------------

 --------------------------
 start best geom PCCP paper
 --------------------------
 Symbolic Z-matrix:
 Charge =  0 Multiplicity = 1

                         Standard orientation:
 ---------------------------------------------------------------------
 Center     Atomic      Atomic             Coordinates (Angstroms)
 Number     Number       Type             X           Y           Z
 ---------------------------------------------------------------------
      1          6           0        0.000000    0.635900    0.000000
      2          8           0       -1.323949    0.381124    0.000000
      3          8           0        0.447609    1.752947    0.000000
      4          1           0       -1.766360    1.239435    0.000000
      5          6           0        0.856429   -0.616662    0.000000
      6          7           0        0.200424   -1.903701    0.000000
      7          1           0        1.506780   -0.534947    0.870775
      8          1           0        1.506780   -0.534947   -0.870775
      9          1           0       -0.389012   -2.015816   -0.812151
     10          1           0       -0.389012   -2.015816    0.812151
 ---------------------------------------------------------------------

 SCF Done:  E(RHF) =  -282.946287797     A.U. after   13 cycles
 E2 =    -0.1270266830D+01 EUMP2 =    -0.28421655462637D+03
 CCSD(T)
 CCSD(T)= -0.28428637926D+03

 The electronic state is 1-A'.
 Alpha  occ. eigenvalues --  -20.61645 -20.54573 -15.55102 -11.38374 -11.27573
 Alpha  occ. eigenvalues --   -1.47139  -1.36504  -1.19904  -0.97303  -0.83096
 Alpha  occ. eigenvalues --   -0.70821  -0.69849  -0.69234  -0.62953  -0.59604
 Alpha  occ. eigenvalues --   -0.58077  -0.54559  -0.48430  -0.48061  -0.40238
 Alpha virt. eigenvalues --    0.13085   0.16323   0.16471   0.17687   0.19016
 Alpha virt. eigenvalues --    0.25556   0.30745   0.34580   0.37171   0.42990
 Alpha virt. eigenvalues --    0.45357   0.45360   0.46679   0.48480   0.53391

 Mulliken charges:
               1
     1  C    0.461557
     2  O   -0.356698
     3  O   -0.445004
     4  H    0.245536
     5  C   -0.054636
     6  N   -0.303982
     7  H    0.106807
     8  H    0.106807
     9  H    0.119806
    10  H    0.119806
 Sum of Mulliken charges =   0.00000

 Dipole moment (field-independent basis, Debye):
    X=             -1.7892    Y=             -1.0097    Z=              0.0000  Tot=              2.0545
 Quadrupole moment (field-independent basis, Debye-Ang):
   XX=            -27.6313   YY=            -36.6743   ZZ=            -27.0111
   XY=             -2.2230   XZ=              0.0000   YZ=              0.0000

 852\CCSD(T)=-284.2863793\RMSD=3.634e-09\PG=CS [SG(C2H1N1O2),X(H4)]\\@
 Normal termination of Gaussian 09 at Sat Oct 15 03:06:35 2016.
