 Gaussian 09, Revision D.01,
 Gaussian 09:  ES64L-G09RevD.01 24-Apr-2013

 --------------
 #P CCSD(T) gen
 --------------

 --------------------------
 start best geom PCCP paper
 --------------------------
 Symbolic Z-matrix:
 Charge =  0 Multiplicity = 1

                         Standard orientation:
 ---------------------------------------------------------------------
 Center     Atomic      Atomic             Coordinates (Angstroms)
 Number     Number       Type             X           Y           Z
 ---------------------------------------------------------------------
      1          6           0        0.000000    0.573396    0.000000
      2          8           0        0.957640    1.531040    0.000000
      3          8           0       -1.156728    0.877678    0.000000
      4          1           0        1.833849    1.134152    0.000000
      5          6           0        0.517981   -0.858483    0.000000
      6          7           0       -0.496418   -1.881566    0.000000
      7          1           0        1.159024   -0.981844    0.876153
      8          1           0        1.159024   -0.981844   -0.876153
      9          1           0       -1.096075   -1.779366    0.807682
     10          1           0       -1.096075   -1.779366   -0.807682
 ---------------------------------------------------------------------

 SCF Done:  E(RHF) =  -282.940259052     A.U. after   13 cycles
 E2 =    -0.1020875876D+01 EUMP2 =    -0.28396113492797D+03
 CCSD(T)
 CCSD(T)= -0.28402172337D+03

 The electronic state is 1-A'.
 Alpha  occ. eigenvalues --  -20.61413 -20.54590 -15.55415 -11.38247 -11.28785
 Alpha  occ. eigenvalues --   -1.46527  -1.36985  -1.20402  -0.97379  -0.83207
 Alpha  occ. eigenvalues --   -0.73648  -0.70336  -0.66973  -0.62908  -0.60513
 Alpha  occ. eigenvalues --   -0.58759  -0.54545  -0.48527  -0.46691  -0.41430
 Alpha virt. eigenvalues --    0.11606   0.14657   0.15954   0.19009   0.19542
 Alpha virt. eigenvalues --    0.24355   0.31415   0.33184   0.34881   0.40669
 Alpha virt. eigenvalues --    0.45314   0.45754   0.46411   0.50742   0.53044

 Mulliken charges:
               1
     1  C    0.453078
     2  O   -0.312715
     3  O   -0.412334
     4  H    0.222867
     5  C   -0.085091
     6  N   -0.302501
     7  H    0.092816
     8  H    0.092816
     9  H    0.125532
    10  H    0.125532
 Sum of Mulliken charges =   0.00000

 Dipole moment (field-independent basis, Debye):
    X=              3.0031    Y=             -1.5949    Z=              0.0000  Tot=              3.4003
 Quadrupole moment (field-independent basis, Debye-Ang):
   XX=            -26.3712   YY=            -38.5271   ZZ=            -27.0480
   XY=              3.9861   XZ=              0.0000   YZ=              0.0000

 \CCSD(T)=-284.0217234\RMSD=3.615e-09\PG=CS [SG(C2H1N1O2),X(H4)]\\@
 Normal termination of Gaussian 09 at Fri Oct 14 23:12:23 2016.
