 Gaussian 09, Revision D.01,
 Gaussian 09:  ES64L-G09RevD.01 24-Apr-2013

 -------------------
 #P CCSD(T)=Full gen
 -------------------

 --------------------------
 start best geom PCCP paper
 --------------------------
 Symbolic Z-matrix:
 Charge =  0 Multiplicity = 1

                         Standard orientation:
 ---------------------------------------------------------------------
 Center     Atomic      Atomic             Coordinates (Angstroms)
 Number     Number       Type             X           Y           Z
 ---------------------------------------------------------------------
      1          6           0        0.000000    0.549747    0.000000
      2          8           0        0.985218    1.470653    0.000000
      3          8           0       -1.167485    0.837818    0.000000
      4          1           0        0.562653    2.338326    0.000000
      5          6           0        0.564972   -0.854997    0.000000
      6          7           0       -0.413127   -1.914567    0.000000
      7          1           0        1.214211   -0.944801    0.871558
      8          1           0        1.214211   -0.944801   -0.871558
      9          1           0       -1.015438   -1.841513    0.808581
     10          1           0       -1.015438   -1.841513   -0.808581
 ---------------------------------------------------------------------

 SCF Done:  E(RHF) =  -282.949504291     A.U. after   13 cycles
 E2 =    -0.1269687987D+01 EUMP2 =    -0.28421919227788D+03
 CCSD(T)
 CCSD(T)= -0.28428908631D+03

 The electronic state is 1-A'.
 Alpha  occ. eigenvalues --  -20.61350 -20.55076 -15.54700 -11.38330 -11.27519
 Alpha  occ. eigenvalues --   -1.47063  -1.36734  -1.19633  -0.97830  -0.81606
 Alpha  occ. eigenvalues --   -0.70928  -0.69889  -0.69576  -0.62972  -0.60205
 Alpha  occ. eigenvalues --   -0.58656  -0.53533  -0.48908  -0.46649  -0.41052
 Alpha virt. eigenvalues --    0.13735   0.15413   0.16693   0.18261   0.19447
 Alpha virt. eigenvalues --    0.25215   0.32210   0.33574   0.35770   0.41451
 Alpha virt. eigenvalues --    0.45241   0.45898   0.47067   0.50775   0.54217

 Mulliken charges:
               1
     1  C    0.466197
     2  O   -0.353921
     3  O   -0.442765
     4  H    0.243638
     5  C   -0.057884
     6  N   -0.306158
     7  H    0.103260
     8  H    0.103260
     9  H    0.122187
    10  H    0.122187
 Sum of Mulliken charges =   0.00000

 Dipole moment (field-independent basis, Debye):
    X=              1.0185    Y=              0.6928    Z=              0.0000  Tot=              1.2318
 Quadrupole moment (field-independent basis, Debye-Ang):
   XX=            -32.8192   YY=            -29.7073   ZZ=            -27.0571
   XY=              2.7747   XZ=              0.0000   YZ=              0.0000

 =-284.2348434\MP4SDQ=-284.2470785\CCSD=-284.2440138\CCSD(T)=-284.28908
 Normal termination of Gaussian 09 at Sat Oct 15 03:38:48 2016.
