 Gaussian 09, Revision D.01,
 Gaussian 09:  ES64L-G09RevD.01 24-Apr-2013

 --------------
 #P CCSD(T) gen
 --------------

 ------
 VII_SP
 ------
 Symbolic Z-matrix:
 Charge =  0 Multiplicity = 1

                         Standard orientation:
 ---------------------------------------------------------------------
 Center     Atomic      Atomic             Coordinates (Angstroms)
 Number     Number       Type             X           Y           Z
 ---------------------------------------------------------------------
      1          6           0        0.000000    0.678907    0.000000
      2          8           0       -1.337854    0.533471    0.000000
      3          8           0        0.506518    1.764722    0.000000
      4          1           0       -1.547449   -0.408206    0.000000
      5          6           0        0.827086   -0.604884    0.000000
      6          7           0        0.142184   -1.872117    0.000000
      7          1           0        1.477562   -0.542869    0.871458
      8          1           0        1.477562   -0.542869   -0.871458
      9          1           0       -0.357397   -2.115457    0.838185
     10          1           0       -0.357397   -2.115457   -0.838185
 ---------------------------------------------------------------------

 SCF Done:  E(RHF) =  -282.937085179     A.U. after   13 cycles
 E2 =    -0.1022248345D+01 EUMP2 =    -0.28395933352461D+03
 CCSD(T)
 CCSD(T)= -0.28401950311D+03

 The electronic state is 1-A'.
 Alpha  occ. eigenvalues --  -20.60962 -20.53510 -15.57443 -11.37714 -11.28751
 Alpha  occ. eigenvalues --   -1.46148  -1.36266  -1.21721  -0.97651  -0.82754
 Alpha  occ. eigenvalues --   -0.74137  -0.72335  -0.66821  -0.63237  -0.61999
 Alpha  occ. eigenvalues --   -0.56699  -0.55756  -0.48305  -0.47250  -0.40603
 Alpha virt. eigenvalues --    0.11043   0.16000   0.16091   0.17507   0.19855
 Alpha virt. eigenvalues --    0.24590   0.30920   0.33257   0.36753   0.43691
 Alpha virt. eigenvalues --    0.43999   0.45013   0.46365   0.47553   0.51767

 Mulliken charges:
               1
     1  C    0.436431
     2  O   -0.317527
     3  O   -0.421036
     4  H    0.218191
     5  C   -0.037826
     6  N   -0.347429
     7  H    0.109217
     8  H    0.109217
     9  H    0.125381
    10  H    0.125381
 Sum of Mulliken charges =   0.00000

 Dipole moment (field-independent basis, Debye):
    X=             -0.9966    Y=             -4.5736    Z=              0.0000  Tot=              4.6809
 Quadrupole moment (field-independent basis, Debye-Ang):
   XX=            -29.5892   YY=            -37.1143   ZZ=            -26.6995
   XY=              3.1587   XZ=              0.0000   YZ=              0.0000

 3.967396\MP4SDQ=-283.9788862\CCSD=-283.9758397\CCSD(T)=-284.0195031\RM
 Normal termination of Gaussian 09 at Mon Dec 26 20:21:15 2016.
