 Gaussian 09, Revision D.01,
 Gaussian 09:  ES64L-G09RevD.01 24-Apr-2013

 --------------
 #P CCSD(T) gen
 --------------

 -------
 VIII_SP
 -------
 Symbolic Z-matrix:
 Charge =  0 Multiplicity = 1

                         Standard orientation:
 ---------------------------------------------------------------------
 Center     Atomic      Atomic             Coordinates (Angstroms)
 Number     Number       Type             X           Y           Z
 ---------------------------------------------------------------------
      1          6           0        0.546143    0.148212    0.012628
      2          8           0        1.729714   -0.499968   -0.044362
      3          8           0        0.511357    1.343991    0.036745
      4          1           0        1.592593   -1.450896   -0.085742
      5          6           0       -0.679769   -0.738038    0.076616
      6          7           0       -1.874850    0.037759   -0.172157
      7          1           0       -0.657798   -1.217003    1.063110
      8          1           0       -0.576213   -1.530916   -0.669685
      9          1           0       -2.658726   -0.288884    0.371019
     10          1           0       -1.702724    1.010149    0.051861
 ---------------------------------------------------------------------

 SCF Done:  E(RHF) =  -282.937253184     A.U. after   13 cycles
 E2 =    -0.1021467045D+01 EUMP2 =    -0.28395872022945D+03
 CCSD(T)
 CCSD(T)= -0.28401920834D+03

 The electronic state is 1-A.
 Alpha  occ. eigenvalues --  -20.61618 -20.54784 -15.54728 -11.38788 -11.28710
 Alpha  occ. eigenvalues --   -1.46887  -1.37324  -1.19792  -0.97502  -0.83358
 Alpha  occ. eigenvalues --   -0.74305  -0.67899  -0.67106  -0.65225  -0.59969
 Alpha  occ. eigenvalues --   -0.58147  -0.56140  -0.48708  -0.45769  -0.40818
 Alpha virt. eigenvalues --    0.11523   0.14053   0.16970   0.19927   0.20988
 Alpha virt. eigenvalues --    0.22836   0.30798   0.31876   0.35470   0.40898
 Alpha virt. eigenvalues --    0.44909   0.47066   0.49370   0.51888   0.54188

 Mulliken charges:
               1
     1  C    0.472985
     2  O   -0.308825
     3  O   -0.416308
     4  H    0.223662
     5  C   -0.036925
     6  N   -0.328783
     7  H    0.070080
     8  H    0.057719
     9  H    0.115195
    10  H    0.151199
 Sum of Mulliken charges =   0.00000

 Dipole moment (field-independent basis, Debye):
    X=             -1.2796    Y=             -4.1167    Z=              1.2712  Tot=              4.4945
 Quadrupole moment (field-independent basis, Debye-Ang):
   XX=            -30.9640   YY=            -28.4041   ZZ=            -29.9469
   XY=             -3.6563   XZ=             -3.4831   YZ=              0.0404

 Normal termination of Gaussian 09 at Mon Dec 26 20:34:54 2016.
