 Gaussian 16, Revision C.01,
 Gaussian 16:  AM64L-G16RevC.01  3-Jul-2019

 -------------------------
 #p #p CCSD(T)/jun-cc-pvtz
 -------------------------

 --------------------------
 start best geom PCCP paper
 --------------------------
 Symbolic Z-matrix:
 Charge =  0 Multiplicity = 1

                         Standard orientation:
 ---------------------------------------------------------------------
 Center     Atomic      Atomic             Coordinates (Angstroms)
 Number     Number       Type             X           Y           Z
 ---------------------------------------------------------------------
      1          7           0       -1.777783    0.124928   -0.048772
      2          1           0       -2.176227    0.113925   -0.975812
      3          6           0       -0.642823   -0.786994    0.071611
      4          6           0        0.686110   -0.041625    0.003814
      5          1           0       -0.662886   -1.287754    1.038553
      6          1           0       -0.617441   -1.563047   -0.691946
      7          8           0        1.742553   -0.607441   -0.059578
      8          8           0        0.574514    1.288852    0.038515
      9          1           0       -2.512293   -0.090938    0.606942
     10          1           0       -0.382931    1.473747    0.079614
 ---------------------------------------------------------------------

 SCF Done:  E(RHF) =  -282.947093774     A.U. after   13 cycles
 E2 =    -0.1020445989D+01 EUMP2 =    -0.28396753976360D+03
 CCSD(T)
 CCSD(T)= -0.28402858930D+03

 The electronic state is 1-A.
 Alpha  occ. eigenvalues --  -20.59889 -20.53461 -15.58872 -11.37512 -11.29111
 Alpha  occ. eigenvalues --   -1.45525  -1.35767  -1.22458  -0.97989  -0.81285
 Alpha  occ. eigenvalues --   -0.73751  -0.71505  -0.67788  -0.62820  -0.62369
 Alpha  occ. eigenvalues --   -0.56317  -0.55854  -0.47412  -0.46603  -0.42507
 Alpha virt. eigenvalues --    0.03488   0.05866   0.06738   0.07877   0.10323
 Alpha virt. eigenvalues --    0.10388   0.10580   0.12036   0.12337   0.15705
 Alpha virt. eigenvalues --    0.17033   0.17244   0.19305   0.20665   0.21953

 Mulliken charges:
               1
     1  N   -0.442397
     2  H    0.165302
     3  C   -0.079590
     4  C    0.349314
     5  H    0.205843
     6  H    0.208368
     7  O   -0.470304
     8  O   -0.360141
     9  H    0.157731
    10  H    0.265874
 Sum of Mulliken charges =  -0.00000

 Dipole moment (field-independent basis, Debye):
    X=             -5.9033    Y=             -0.7100    Z=             -0.0105  Tot=              5.9458
 Quadrupole moment (field-independent basis, Debye-Ang):
   XX=            -32.2373   YY=            -31.3208   ZZ=            -27.1436
   XY=              1.8378   XZ=              0.5536   YZ=             -0.4825

 .9842323\CCSD(T)=-284.0285893\RMSD=4.253e-09\PG=C01 [X(C2H5N1O2)]\\@
 Normal termination of Gaussian 16 at Fri Jan 15 21:44:19 2021.
