 Gaussian 16, Revision C.01,
 Gaussian 16:  AM64L-G16RevC.01  3-Jul-2019

 -------------------------
 #p #p CCSD(T)/jun-cc-pvtz
 -------------------------

 --------------------------
 start best geom PCCP paper
 --------------------------
 Symbolic Z-matrix:
 Charge =  0 Multiplicity = 1

                         Standard orientation:
 ---------------------------------------------------------------------
 Center     Atomic      Atomic             Coordinates (Angstroms)
 Number     Number       Type             X           Y           Z
 ---------------------------------------------------------------------
      1          6           0        0.618518   -0.113452    0.015582
      2          8           0        0.629857    1.232314    0.102216
      3          8           0        1.611391   -0.762918   -0.179712
      4          1           0        1.543352    1.512541   -0.033863
      5          6           0       -0.754494   -0.683284    0.258311
      6          7           0       -1.797230    0.162725   -0.300561
      7          1           0       -0.825344   -0.835413    1.343137
      8          1           0       -0.780740   -1.661095   -0.214728
      9          1           0       -2.709920   -0.223225   -0.105836
     10          1           0       -1.760866    1.093359    0.091830
 ---------------------------------------------------------------------

 SCF Done:  E(RHF) =  -282.947417883     A.U. after   13 cycles
 E2 =    -0.1016829075D+01 EUMP2 =    -0.28396424695793D+03
 CCSD(T)
 CCSD(T)= -0.28402558532D+03

 The electronic state is 1-A.
 Alpha  occ. eigenvalues --  -20.61855 -20.55243 -15.55761 -11.38862 -11.27876
 Alpha  occ. eigenvalues --   -1.47327  -1.36800  -1.20068  -0.97938  -0.82960
 Alpha  occ. eigenvalues --   -0.71770  -0.69138  -0.67172  -0.65053  -0.60199
 Alpha  occ. eigenvalues --   -0.58594  -0.55970  -0.49026  -0.46078  -0.40789
 Alpha virt. eigenvalues --    0.04672   0.05654   0.07008   0.07661   0.09948
 Alpha virt. eigenvalues --    0.10223   0.10807   0.13510   0.14202   0.16253
 Alpha virt. eigenvalues --    0.16811   0.17949   0.19221   0.19766   0.20153

 Mulliken charges:
               1
     1  C    0.397924
     2  O   -0.317473
     3  O   -0.497719
     4  H    0.207170
     5  C   -0.147904
     6  N   -0.403614
     7  H    0.207495
     8  H    0.221323
     9  H    0.160323
    10  H    0.172476
 Sum of Mulliken charges =  -0.00000

 Dipole moment (field-independent basis, Debye):
    X=             -1.9073    Y=              1.1120    Z=              1.6117  Tot=              2.7335
 Quadrupole moment (field-independent basis, Debye-Ang):
   XX=            -28.5385   YY=            -28.6696   ZZ=            -31.0815
   XY=              6.2056   XZ=             -1.9648   YZ=             -0.2781

 SDQ=-283.9848942\CCSD=-283.98188\CCSD(T)=-284.0255853\RMSD=3.072e-09\P
 Normal termination of Gaussian 16 at Sat Jan 16 00:16:21 2021.
