 Gaussian 16, Revision C.01,
 Gaussian 16:  AM64L-G16RevC.01  3-Jul-2019

 -------------------------
 #p #p CCSD(T)/jun-cc-pvtz
 -------------------------

 --------------------------
 start best geom PCCP paper
 --------------------------
 Symbolic Z-matrix:
 Charge =  0 Multiplicity = 1

                         Standard orientation:
 ---------------------------------------------------------------------
 Center     Atomic      Atomic             Coordinates (Angstroms)
 Number     Number       Type             X           Y           Z
 ---------------------------------------------------------------------
      1          6           0        0.533710    0.102893    0.014867
      2          8           0        1.632185   -0.670799   -0.066880
      3          8           0        0.575034    1.304539    0.045254
      4          1           0        2.393950   -0.078239   -0.074783
      5          6           0       -0.719436   -0.723120    0.103930
      6          7           0       -1.876755    0.096522   -0.192365
      7          1           0       -0.714656   -1.160119    1.109923
      8          1           0       -0.636201   -1.548521   -0.602525
      9          1           0       -2.714348   -0.276671    0.227657
     10          1           0       -1.734852    1.039339    0.146516
 ---------------------------------------------------------------------

 SCF Done:  E(RHF) =  -282.949459042     A.U. after   13 cycles
 E2 =    -0.1016920286D+01 EUMP2 =    -0.28396637932833D+03
 CCSD(T)
 CCSD(T)= -0.28402764202D+03

 The electronic state is 1-A.
 Alpha  occ. eigenvalues --  -20.62056 -20.55694 -15.54935 -11.39144 -11.27795
 Alpha  occ. eigenvalues --   -1.47626  -1.37277  -1.19541  -0.98358  -0.81637
 Alpha  occ. eigenvalues --   -0.72382  -0.71220  -0.67255  -0.63424  -0.60430
 Alpha  occ. eigenvalues --   -0.57825  -0.56585  -0.49231  -0.46291  -0.40399
 Alpha virt. eigenvalues --    0.04874   0.05568   0.06882   0.07702   0.09999
 Alpha virt. eigenvalues --    0.10278   0.10442   0.13402   0.14721   0.16294
 Alpha virt. eigenvalues --    0.16752   0.17599   0.19253   0.19934   0.21779

 Mulliken charges:
               1
     1  C    0.405405
     2  O   -0.328161
     3  O   -0.506962
     4  H    0.220412
     5  C   -0.171560
     6  N   -0.393995
     7  H    0.215957
     8  H    0.221975
     9  H    0.159464
    10  H    0.177467
 Sum of Mulliken charges =  -0.00000

 Dipole moment (field-independent basis, Debye):
    X=              0.0711    Y=             -1.8013    Z=              1.3467  Tot=              2.2502
 Quadrupole moment (field-independent basis, Debye-Ang):
   XX=            -23.6866   YY=            -33.3085   ZZ=            -30.5230
   XY=              1.2280   XZ=             -3.3935   YZ=              0.1064

 DQ=-283.9868889\CCSD=-283.9839227\CCSD(T)=-284.027642\RMSD=3.327e-09\P
 Normal termination of Gaussian 16 at Sat Jan 16 06:00:08 2021.
