 Gaussian 16, Revision C.01,
 Gaussian 16:  AM64L-G16RevC.01  3-Jul-2019

 -------------------------
 #p #p CCSD(T)/jun-cc-pvtz
 -------------------------

 --------------------------
 start best geom PCCP paper
 --------------------------
 Symbolic Z-matrix:
 Charge =  0 Multiplicity = 1

                         Standard orientation:
 ---------------------------------------------------------------------
 Center     Atomic      Atomic             Coordinates (Angstroms)
 Number     Number       Type             X           Y           Z
 ---------------------------------------------------------------------
      1          6           0       -0.000000    0.635900    0.000000
      2          8           0       -1.323949    0.381124    0.000000
      3          8           0        0.447609    1.752947    0.000000
      4          1           0       -1.766360    1.239435    0.000000
      5          6           0        0.856429   -0.616662   -0.000000
      6          7           0        0.200424   -1.903701   -0.000000
      7          1           0        1.506780   -0.534947    0.870775
      8          1           0        1.506780   -0.534947   -0.870775
      9          1           0       -0.389012   -2.015816   -0.812151
     10          1           0       -0.389012   -2.015816    0.812151
 ---------------------------------------------------------------------

 SCF Done:  E(RHF) =  -282.948688161     A.U. after   13 cycles
 E2 =    -0.1016992774D+01 EUMP2 =    -0.28396568093506D+03
 CCSD(T)
 CCSD(T)= -0.28402699920D+03

 The electronic state is 1-A'.
 Alpha  occ. eigenvalues --  -20.62256 -20.55232 -15.55697 -11.38825 -11.27899
 Alpha  occ. eigenvalues --   -1.47534  -1.36907  -1.20240  -0.97605  -0.83428
 Alpha  occ. eigenvalues --   -0.71161  -0.70145  -0.69559  -0.63262  -0.59937
 Alpha  occ. eigenvalues --   -0.58366  -0.54819  -0.48731  -0.48392  -0.40497
 Alpha virt. eigenvalues --    0.04921   0.05857   0.07179   0.07314   0.09868
 Alpha virt. eigenvalues --    0.10072   0.10561   0.13149   0.13497   0.16156
 Alpha virt. eigenvalues --    0.17066   0.17756   0.19484   0.19593   0.19943

 Mulliken charges:
               1
     1  C    0.412304
     2  O   -0.320113
     3  O   -0.498242
     4  H    0.214026
     5  C   -0.146646
     6  N   -0.418293
     7  H    0.211166
     8  H    0.211166
     9  H    0.167317
    10  H    0.167317
 Sum of Mulliken charges =  -0.00000

 Dipole moment (field-independent basis, Debye):
    X=             -1.7887    Y=             -1.0094    Z=              0.0000  Tot=              2.0539
 Quadrupole moment (field-independent basis, Debye-Ang):
   XX=            -27.8659   YY=            -37.2935   ZZ=            -27.2300
   XY=             -2.1754   XZ=             -0.0000   YZ=             -0.0000

 \CCSD=-283.9831991\CCSD(T)=-284.0269992\RMSD=3.857e-09\PG=CS [SG(C2H1N
 Normal termination of Gaussian 16 at Sat Jan 16 09:34:40 2021.
