 Gaussian 16, Revision C.01,
 Gaussian 16:  AM64L-G16RevC.01  3-Jul-2019

 -------------------------
 #p #p CCSD(T)/jun-cc-pvtz
 -------------------------

 --------------------------
 start best geom PCCP paper
 --------------------------
 Symbolic Z-matrix:
 Charge =  0 Multiplicity = 1

                         Standard orientation:
 ---------------------------------------------------------------------
 Center     Atomic      Atomic             Coordinates (Angstroms)
 Number     Number       Type             X           Y           Z
 ---------------------------------------------------------------------
      1          6           0        0.000000    0.573396   -0.000000
      2          8           0        0.957640    1.531040   -0.000000
      3          8           0       -1.156728    0.877678   -0.000000
      4          1           0        1.833849    1.134152   -0.000000
      5          6           0        0.517981   -0.858483    0.000000
      6          7           0       -0.496418   -1.881566    0.000000
      7          1           0        1.159024   -0.981844    0.876153
      8          1           0        1.159024   -0.981844   -0.876153
      9          1           0       -1.096075   -1.779366    0.807682
     10          1           0       -1.096075   -1.779366   -0.807682
 ---------------------------------------------------------------------

 SCF Done:  E(RHF) =  -282.942997610     A.U. after   13 cycles
 E2 =    -0.1017559188D+01 EUMP2 =    -0.28396055679850D+03
 CCSD(T)
 CCSD(T)= -0.28402213246D+03

 The electronic state is 1-A'.
 Alpha  occ. eigenvalues --  -20.62077 -20.55239 -15.55989 -11.38695 -11.29109
 Alpha  occ. eigenvalues --   -1.46936  -1.37397  -1.20722  -0.97660  -0.83574
 Alpha  occ. eigenvalues --   -0.73960  -0.70616  -0.67308  -0.63219  -0.60829
 Alpha  occ. eigenvalues --   -0.59077  -0.54789  -0.48873  -0.47011  -0.41676
 Alpha virt. eigenvalues --    0.04147   0.05968   0.06768   0.06781   0.10146
 Alpha virt. eigenvalues --    0.10312   0.10594   0.12404   0.13103   0.16349
 Alpha virt. eigenvalues --    0.16380   0.17457   0.19152   0.19610   0.22370

 Mulliken charges:
               1
     1  C    0.447877
     2  O   -0.327802
     3  O   -0.450523
     4  H    0.209868
     5  C   -0.267069
     6  N   -0.386412
     7  H    0.219819
     8  H    0.219819
     9  H    0.167212
    10  H    0.167212
 Sum of Mulliken charges =  -0.00000

 Dipole moment (field-independent basis, Debye):
    X=              3.0318    Y=             -1.5712    Z=             -0.0000  Tot=              3.4148
 Quadrupole moment (field-independent basis, Debye-Ang):
   XX=            -26.6458   YY=            -39.0578   ZZ=            -27.2729
   XY=              3.9660   XZ=             -0.0000   YZ=              0.0000

 3181\CCSD=-283.97825\CCSD(T)=-284.0221325\RMSD=3.629e-09\PG=CS [SG(C2H
 Normal termination of Gaussian 16 at Sat Jan 16 11:27:07 2021.
