 Gaussian 16, Revision C.01,
 Gaussian 16:  ES64L-G16RevC.01  3-Jul-2019

 ----------------------
 #p CCSD(T)/jun-cc-pvtz
 ----------------------

 --------------------------
 start best geom PCCP paper
 --------------------------
 Symbolic Z-matrix:
 Charge =  0 Multiplicity = 1

                         Standard orientation:
 ---------------------------------------------------------------------
 Center     Atomic      Atomic             Coordinates (Angstroms)
 Number     Number       Type             X           Y           Z
 ---------------------------------------------------------------------
      1          6           0       -0.000000    0.549747   -0.000000
      2          8           0        0.985218    1.470653   -0.000000
      3          8           0       -1.167485    0.837818    0.000000
      4          1           0        0.562653    2.338326   -0.000000
      5          6           0        0.564972   -0.854997   -0.000000
      6          7           0       -0.413127   -1.914567    0.000000
      7          1           0        1.214211   -0.944801    0.871558
      8          1           0        1.214211   -0.944801   -0.871558
      9          1           0       -1.015438   -1.841513    0.808581
     10          1           0       -1.015438   -1.841513   -0.808581
 ---------------------------------------------------------------------

 SCF Done:  E(RHF) =  -282.951968455     A.U. after   13 cycles
 E2 =    -0.1016363575D+01 EUMP2 =    -0.28396833203035D+03
 CCSD(T)
 CCSD(T)= -0.28402973665D+03

 The electronic state is 1-A'.
 Alpha  occ. eigenvalues --  -20.61971 -20.55718 -15.55301 -11.38777 -11.27853
 Alpha  occ. eigenvalues --   -1.47455  -1.37134  -1.19972  -0.98135  -0.81938
 Alpha  occ. eigenvalues --   -0.71262  -0.70206  -0.69872  -0.63281  -0.60532
 Alpha  occ. eigenvalues --   -0.58961  -0.53795  -0.49240  -0.46969  -0.41298
 Alpha virt. eigenvalues --    0.05245   0.05833   0.06721   0.07275   0.10120
 Alpha virt. eigenvalues --    0.10177   0.10440   0.13231   0.13626   0.16336
 Alpha virt. eigenvalues --    0.16678   0.17651   0.19486   0.19508   0.22169

 Mulliken charges:
               1
     1  C    0.428781
     2  O   -0.340237
     3  O   -0.493465
     4  H    0.220922
     5  C   -0.174314
     6  N   -0.394810
     7  H    0.211732
     8  H    0.211732
     9  H    0.164829
    10  H    0.164829
 Sum of Mulliken charges =  -0.00000

 Dipole moment (field-independent basis, Debye):
    X=              1.0610    Y=              0.7081    Z=              0.0000  Tot=              1.2756
 Quadrupole moment (field-independent basis, Debye-Ang):
   XX=            -33.0986   YY=            -30.2662   ZZ=            -27.2771
   XY=              2.8097   XZ=             -0.0000   YZ=              0.0000

 9\MP4DQ=-283.9777153\MP4SDQ=-283.9890445\CCSD=-283.9860583\CCSD(T)=-28
 Normal termination of Gaussian 16 at Mon Jan 18 13:18:43 2021.
