 Gaussian 16, Revision C.01,
 Gaussian 16:  ES64L-G16RevC.01  3-Jul-2019

 ----------------------
 #p CCSD(T)/jun-cc-pvtz
 ----------------------

 ------
 VII_SP
 ------
 Symbolic Z-matrix:
 Charge =  0 Multiplicity = 1

                         Standard orientation:
 ---------------------------------------------------------------------
 Center     Atomic      Atomic             Coordinates (Angstroms)
 Number     Number       Type             X           Y           Z
 ---------------------------------------------------------------------
      1          6           0        0.000000    0.678907    0.000000
      2          8           0       -1.337854    0.533471    0.000000
      3          8           0        0.506518    1.764722    0.000000
      4          1           0       -1.547449   -0.408206   -0.000000
      5          6           0        0.827086   -0.604884   -0.000000
      6          7           0        0.142184   -1.872117   -0.000000
      7          1           0        1.477562   -0.542869    0.871458
      8          1           0        1.477562   -0.542869   -0.871458
      9          1           0       -0.357397   -2.115457    0.838184
     10          1           0       -0.357397   -2.115457   -0.838184
 ---------------------------------------------------------------------

 SCF Done:  E(RHF) =  -282.939879134     A.U. after   13 cycles
 E2 =    -0.1019037792D+01 EUMP2 =    -0.28395891692616D+03
 CCSD(T)
 CCSD(T)= -0.28402004698D+03

 The electronic state is 1-A'.
 Alpha  occ. eigenvalues --  -20.61657 -20.54204 -15.58006 -11.38188 -11.29079
 Alpha  occ. eigenvalues --   -1.46585  -1.36705  -1.22038  -0.97938  -0.83144
 Alpha  occ. eigenvalues --   -0.74466  -0.72621  -0.67165  -0.63556  -0.62325
 Alpha  occ. eigenvalues --   -0.57039  -0.56015  -0.48598  -0.47615  -0.40881
 Alpha virt. eigenvalues --    0.03931   0.05994   0.06856   0.07722   0.09887
 Alpha virt. eigenvalues --    0.10369   0.10652   0.11451   0.12269   0.15747
 Alpha virt. eigenvalues --    0.16620   0.17471   0.19940   0.20265   0.21415

 Mulliken charges:
               1
     1  C    0.359468
     2  O   -0.342918
     3  O   -0.459763
     4  H    0.221142
     5  C   -0.070566
     6  N   -0.501562
     7  H    0.211171
     8  H    0.211171
     9  H    0.185928
    10  H    0.185928
 Sum of Mulliken charges =  -0.00000

 Dipole moment (field-independent basis, Debye):
    X=             -0.9887    Y=             -4.5648    Z=             -0.0000  Tot=              4.6706
 Quadrupole moment (field-independent basis, Debye-Ang):
   XX=            -29.9012   YY=            -37.6215   ZZ=            -26.9255
   XY=              3.1236   XZ=             -0.0000   YZ=              0.0000

 P4DQ=-283.9674286\MP4SDQ=-283.9790044\CCSD=-283.9758813\CCSD(T)=-284.0
 Normal termination of Gaussian 16 at Fri Jan 15 21:15:23 2021.
