 Gaussian 16, Revision C.01,
 Gaussian 16:  ES64L-G16RevC.01  3-Jul-2019

 ----------------------
 #p CCSD(T)/jun-cc-pvtz
 ----------------------

 -------
 VIII_SP
 -------
 Symbolic Z-matrix:
 Charge =  0 Multiplicity = 1

                         Standard orientation:
 ---------------------------------------------------------------------
 Center     Atomic      Atomic             Coordinates (Angstroms)
 Number     Number       Type             X           Y           Z
 ---------------------------------------------------------------------
      1          6           0        0.546143    0.148212    0.012628
      2          8           0        1.729714   -0.499968   -0.044362
      3          8           0        0.511357    1.343991    0.036745
      4          1           0        1.592593   -1.450896   -0.085742
      5          6           0       -0.679769   -0.738038    0.076616
      6          7           0       -1.874850    0.037759   -0.172157
      7          1           0       -0.657798   -1.217003    1.063110
      8          1           0       -0.576213   -1.530916   -0.669685
      9          1           0       -2.658726   -0.288884    0.371019
     10          1           0       -1.702724    1.010149    0.051861
 ---------------------------------------------------------------------

 SCF Done:  E(RHF) =  -282.940335364     A.U. after   13 cycles
 E2 =    -0.1018156626D+01 EUMP2 =    -0.28395849199008D+03
 CCSD(T)
 CCSD(T)= -0.28401992887D+03

 The electronic state is 1-A.
 Alpha  occ. eigenvalues --  -20.62233 -20.55376 -15.55432 -11.39193 -11.29061
 Alpha  occ. eigenvalues --   -1.47253  -1.37690  -1.20176  -0.97800  -0.83695
 Alpha  occ. eigenvalues --   -0.74619  -0.68212  -0.67397  -0.65564  -0.60255
 Alpha  occ. eigenvalues --   -0.58457  -0.56469  -0.49007  -0.46090  -0.41068
 Alpha virt. eigenvalues --    0.03808   0.05582   0.06947   0.07193   0.10046
 Alpha virt. eigenvalues --    0.10351   0.10658   0.12649   0.14410   0.16248
 Alpha virt. eigenvalues --    0.16671   0.17233   0.18940   0.19824   0.21438

 Mulliken charges:
               1
     1  C    0.422844
     2  O   -0.316643
     3  O   -0.465318
     4  H    0.209834
     5  C   -0.252729
     6  N   -0.388819
     7  H    0.226941
     8  H    0.216468
     9  H    0.160086
    10  H    0.187335
 Sum of Mulliken charges =  -0.00000

 Dipole moment (field-independent basis, Debye):
    X=             -1.2901    Y=             -4.1628    Z=              1.2884  Tot=              4.5446
 Quadrupole moment (field-independent basis, Debye-Ang):
   XX=            -31.3324   YY=            -28.6503   ZZ=            -30.2970
   XY=             -3.5654   XZ=             -3.5746   YZ=              0.0329

 CCSD(T)=-284.0199289\RMSD=3.894e-09\PG=C01 [X(C2H5N1O2)]\\@
 Normal termination of Gaussian 16 at Fri Jan 15 15:50:57 2021.
