 Gaussian 09, Revision E.01,
 Gaussian 09:  ES64L-G09RevE.01 30-Nov-2015

 -------------
 #P HF cc-pV5Z
 -------------

 --------------------------
 start best geom PCCP paper
 --------------------------
 Symbolic Z-matrix:
 Charge =  0 Multiplicity = 1

                         Standard orientation:
 ---------------------------------------------------------------------
 Center     Atomic      Atomic             Coordinates (Angstroms)
 Number     Number       Type             X           Y           Z
 ---------------------------------------------------------------------
      1          7           0       -1.777783    0.124928   -0.048772
      2          1           0       -2.176227    0.113925   -0.975812
      3          6           0       -0.642823   -0.786994    0.071611
      4          6           0        0.686110   -0.041625    0.003814
      5          1           0       -0.662886   -1.287754    1.038553
      6          1           0       -0.617441   -1.563047   -0.691946
      7          8           0        1.742553   -0.607441   -0.059578
      8          8           0        0.574514    1.288852    0.038515
      9          1           0       -2.512293   -0.090938    0.606942
     10          1           0       -0.382931    1.473747    0.079614
 ---------------------------------------------------------------------

 SCF Done:  E(RHF) =  -282.969945216     A.U. after   13 cycles

 The electronic state is 1-A.
 Alpha  occ. eigenvalues --  -20.59500 -20.53069 -15.58620 -11.37320 -11.28958
 Alpha  occ. eigenvalues --   -1.45381  -1.35617  -1.22386  -0.97935  -0.81231
 Alpha  occ. eigenvalues --   -0.73731  -0.71491  -0.67763  -0.62803  -0.62348
 Alpha  occ. eigenvalues --   -0.56303  -0.55855  -0.47414  -0.46592  -0.42506
 Alpha virt. eigenvalues --    0.06802   0.10138   0.11332   0.13010   0.15217
 Alpha virt. eigenvalues --    0.17531   0.17948   0.20167   0.22733   0.23730
 Alpha virt. eigenvalues --    0.27506   0.27926   0.29153   0.30680   0.32695

 Mulliken charges:
               1
     1  N   -0.543307
     2  H    0.226693
     3  C    0.018010
     4  C    0.526306
     5  H    0.053860
     6  H    0.058278
     7  O   -0.477508
     8  O   -0.444863
     9  H    0.231230
    10  H    0.351302
 Sum of Mulliken charges =  -0.00000

 Dipole moment (field-independent basis, Debye):
    X=             -5.9012    Y=             -0.7065    Z=             -0.0102  Tot=              5.9434
 Quadrupole moment (field-independent basis, Debye-Ang):
   XX=            -32.1759   YY=            -31.2466   ZZ=            -27.1073
   XY=              1.8137   XZ=              0.5509   YZ=             -0.4817

 1\1\GINC-R01N18\SP\RHF\CC-pV5Z\C2H5N1O2\JIANGZHONGMING\15-Oct-2016\0\\
 #P HF cc-pV5Z\\start best geom PCCP paper\\0,1\N\H,1,1.0091\C,1,1.4609
 ,2,112.0646\C,3,1.5252,1,111.6045,2,101.3936,0\H,3,1.0891,1,110.2343,4
 ,117.8521,0\H,3,1.089,1,113.9016,4,-121.6454,0\O,4,1.2001,3,122.6125,1
 ,-171.93,0\O,4,1.3356,3,114.3853,1,8.8971,0\H,1,1.008,3,112.2608,4,-13
 6.9715,0\H,8,0.976,4,105.7699,3,-1.3866,0\\Version=ES64L-G09RevE.01\St
 ate=1-A\HF=-282.9699452\RMSD=7.840e-09\Dipole=-1.3850784,1.6420817,0.9
 234562\Quadrupole=-2.4012619,0.4056355,1.9956264,0.0853777,0.9039319,-

 Normal termination of Gaussian 09 at Sat Oct 15 17:03:50 2016.
