 Gaussian 09, Revision E.01,
 Gaussian 09:  ES64L-G09RevE.01 30-Nov-2015

 -------------
 #P HF cc-pV5Z
 -------------

 --------------------------
 start best geom PCCP paper
 --------------------------
 Symbolic Z-matrix:
 Charge =  0 Multiplicity = 1

                         Standard orientation:
 ---------------------------------------------------------------------
 Center     Atomic      Atomic             Coordinates (Angstroms)
 Number     Number       Type             X           Y           Z
 ---------------------------------------------------------------------
      1          6           0        0.618518   -0.113452    0.015582
      2          8           0        0.629857    1.232314    0.102216
      3          8           0        1.611391   -0.762918   -0.179712
      4          1           0        1.543352    1.512541   -0.033863
      5          6           0       -0.754494   -0.683284    0.258311
      6          7           0       -1.797230    0.162725   -0.300561
      7          1           0       -0.825344   -0.835413    1.343137
      8          1           0       -0.780740   -1.661095   -0.214728
      9          1           0       -2.709920   -0.223225   -0.105836
     10          1           0       -1.760866    1.093359    0.091830
 ---------------------------------------------------------------------

 SCF Done:  E(RHF) =  -282.970259119     A.U. after   14 cycles

 The electronic state is 1-A.
 Alpha  occ. eigenvalues --  -20.61469 -20.54857 -15.55502 -11.38672 -11.27720
 Alpha  occ. eigenvalues --   -1.47183  -1.36652  -1.19990  -0.97877  -0.82914
 Alpha  occ. eigenvalues --   -0.71736  -0.69108  -0.67156  -0.65035  -0.60189
 Alpha  occ. eigenvalues --   -0.58575  -0.55964  -0.49016  -0.46069  -0.40803
 Alpha virt. eigenvalues --    0.08360   0.10396   0.12213   0.12737   0.15327
 Alpha virt. eigenvalues --    0.17598   0.18326   0.20943   0.22831   0.25147
 Alpha virt. eigenvalues --    0.25536   0.27360   0.29617   0.32471   0.32885

 Mulliken charges:
               1
     1  C    0.569268
     2  O   -0.476095
     3  O   -0.508255
     4  H    0.344982
     5  C    0.094251
     6  N   -0.496554
     7  H   -0.008578
     8  H    0.060077
     9  H    0.201419
    10  H    0.219485
 Sum of Mulliken charges =  -0.00000

 Dipole moment (field-independent basis, Debye):
    X=             -1.9042    Y=              1.1176    Z=              1.6032  Tot=              2.7286
 Quadrupole moment (field-independent basis, Debye-Ang):
   XX=            -28.4678   YY=            -28.6174   ZZ=            -31.0221
   XY=              6.1958   XZ=             -1.9481   YZ=             -0.2826

 1\1\GINC-R01N18\SP\RHF\CC-pV5Z\C2H5N1O2\JIANGZHONGMING\15-Oct-2016\0\\
 #P HF cc-pV5Z\\start best geom PCCP paper\\0,1\C\O,1,1.3486\O,1,1.2023
 9,2,122.85413\H,2,0.965152,1,106.77622,3,0.858776,0\C,1,1.50625,3,125.
 06726,2,-176.8326,0\N,5,1.45443,1,111.81084,3,-146.04703,0\H,5,1.09773
 ,1,105.69489,3,88.80239,0\H,5,1.08654,1,106.9966,3,-25.78313,0\H,6,1.0
 0989,5,110.58167,1,-178.47161,0\H,6,1.01063,5,111.13985,1,-58.48891,0\
 \Version=ES64L-G09RevE.01\State=1-A\HF=-282.9702591\RMSD=3.422e-09\Dip
 ole=-0.8356124,-0.4800233,0.4729956\Quadrupole=1.0743552,-1.6746599,0.

 Normal termination of Gaussian 09 at Sat Oct 15 17:15:18 2016.
