 Gaussian 09, Revision E.01,
 Gaussian 09:  ES64L-G09RevE.01 30-Nov-2015

 -------------
 #P HF cc-pV5Z
 -------------

 --------------------------
 start best geom PCCP paper
 --------------------------
 Symbolic Z-matrix:
 Charge =  0 Multiplicity = 1

                         Standard orientation:
 ---------------------------------------------------------------------
 Center     Atomic      Atomic             Coordinates (Angstroms)
 Number     Number       Type             X           Y           Z
 ---------------------------------------------------------------------
      1          6           0        0.533710    0.102893    0.014867
      2          8           0        1.632185   -0.670799   -0.066880
      3          8           0        0.575034    1.304539    0.045254
      4          1           0        2.393950   -0.078239   -0.074783
      5          6           0       -0.719436   -0.723120    0.103930
      6          7           0       -1.876755    0.096522   -0.192365
      7          1           0       -0.714656   -1.160119    1.109923
      8          1           0       -0.636201   -1.548521   -0.602525
      9          1           0       -2.714348   -0.276671    0.227657
     10          1           0       -1.734852    1.039339    0.146516
 ---------------------------------------------------------------------

 SCF Done:  E(RHF) =  -282.972300441     A.U. after   14 cycles

 The electronic state is 1-A.
 Alpha  occ. eigenvalues --  -20.61671 -20.55314 -15.54669 -11.38956 -11.27638
 Alpha  occ. eigenvalues --   -1.47484  -1.37132  -1.19459  -0.98297  -0.81589
 Alpha  occ. eigenvalues --   -0.72355  -0.71188  -0.67239  -0.63403  -0.60417
 Alpha  occ. eigenvalues --   -0.57815  -0.56571  -0.49226  -0.46278  -0.40413
 Alpha virt. eigenvalues --    0.08713   0.10016   0.12681   0.13012   0.15090
 Alpha virt. eigenvalues --    0.17213   0.19259   0.20919   0.22520   0.23016
 Alpha virt. eigenvalues --    0.26263   0.27744   0.31905   0.32902   0.33781

 Mulliken charges:
               1
     1  C    0.569377
     2  O   -0.460822
     3  O   -0.520680
     4  H    0.343892
     5  C    0.097741
     6  N   -0.504356
     7  H    0.003256
     8  H    0.037377
     9  H    0.194679
    10  H    0.239536
 Sum of Mulliken charges =  -0.00000

 Dipole moment (field-independent basis, Debye):
    X=              0.0730    Y=             -1.7961    Z=              1.3395  Tot=              2.2418
 Quadrupole moment (field-independent basis, Debye-Ang):
   XX=            -23.6184   YY=            -33.2511   ZZ=            -30.4649
   XY=              1.2233   XZ=             -3.3690   YZ=              0.1008

 1\1\GINC-R01N18\SP\RHF\CC-pV5Z\C2H5N1O2\JIANGZHONGMING\15-Oct-2016\0\\
 #P HF cc-pV5Z\\start best geom PCCP paper\\0,1\C\O,1,1.34608\O,1,1.202
 74,2,123.21263\H,2,0.96513,1,106.9601,3,1.12063,0\C,1,1.50353,3,125.17
 128,2,178.03326,0\N,5,1.44879,1,110.05161,3,18.04528,0\H,5,1.09682,1,1
 05.6396,3,-106.18775,0\H,5,1.08963,1,108.30581,3,139.44601,0\H,6,1.008
 59,5,111.64684,1,-155.36007,0\H,6,1.01187,5,110.28053,1,-34.31555,0\\V
 ersion=ES64L-G09RevE.01\State=1-A\HF=-282.9723004\RMSD=3.957e-09\Dipol
 e=-0.5664426,0.5467748,0.3975796\Quadrupole=0.1753211,-1.2748679,1.099

 Normal termination of Gaussian 09 at Sat Oct 15 17:38:33 2016.
