 Gaussian 09, Revision E.01,
 Gaussian 09:  ES64L-G09RevE.01 30-Nov-2015

 -------------
 #P HF cc-pV5Z
 -------------

 --------------------------
 start best geom PCCP paper
 --------------------------
 Symbolic Z-matrix:
 Charge =  0 Multiplicity = 1

                         Standard orientation:
 ---------------------------------------------------------------------
 Center     Atomic      Atomic             Coordinates (Angstroms)
 Number     Number       Type             X           Y           Z
 ---------------------------------------------------------------------
      1          6           0        0.000000    0.635900    0.000000
      2          8           0       -1.323949    0.381124    0.000000
      3          8           0        0.447609    1.752947    0.000000
      4          1           0       -1.766360    1.239435    0.000000
      5          6           0        0.856429   -0.616662   -0.000000
      6          7           0        0.200424   -1.903701   -0.000000
      7          1           0        1.506780   -0.534947    0.870775
      8          1           0        1.506780   -0.534947   -0.870775
      9          1           0       -0.389012   -2.015816   -0.812151
     10          1           0       -0.389012   -2.015816    0.812151
 ---------------------------------------------------------------------

 SCF Done:  E(RHF) =  -282.971533102     A.U. after   14 cycles

 The electronic state is 1-A'.
 Alpha  occ. eigenvalues --  -20.61872 -20.54848 -15.55445 -11.38638 -11.27746
 Alpha  occ. eigenvalues --   -1.47393  -1.36761  -1.20167  -0.97548  -0.83384
 Alpha  occ. eigenvalues --   -0.71129  -0.70131  -0.69533  -0.63249  -0.59921
 Alpha  occ. eigenvalues --   -0.58355  -0.54822  -0.48728  -0.48385  -0.40507
 Alpha virt. eigenvalues --    0.08441   0.11015   0.11765   0.12091   0.15077
 Alpha virt. eigenvalues --    0.17313   0.18370   0.20847   0.22591   0.22852
 Alpha virt. eigenvalues --    0.26644   0.29973   0.30246   0.30809   0.32625

 Mulliken charges:
               1
     1  C    0.549102
     2  O   -0.463000
     3  O   -0.514145
     4  H    0.341141
     5  C   -0.000525
     6  N   -0.496255
     7  H    0.079617
     8  H    0.079617
     9  H    0.212224
    10  H    0.212224
 Sum of Mulliken charges =  -0.00000

 Dipole moment (field-independent basis, Debye):
    X=             -1.7916    Y=             -1.0095    Z=              0.0000  Tot=              2.0564
 Quadrupole moment (field-independent basis, Debye-Ang):
   XX=            -27.8211   YY=            -37.2016   ZZ=            -27.1913
   XY=             -2.1873   XZ=              0.0000   YZ=              0.0000

 1\1\GINC-R01N18\SP\RHF\CC-pV5Z\C2H5N1O2\JIANGZHONGMING\15-Oct-2016\0\\
 #P HF cc-pV5Z\\start best geom PCCP paper\\0,1\C\O,1,1.34824\O,1,1.203
 39,2,122.72896\H,2,0.965621,1,106.37597,3,0.,0\C,1,1.51736,3,123.80161
 ,2,180.,0\N,5,1.44458,1,118.62999,3,180.,0\H,5,1.0899,1,105.95621,3,56
 .19793,0\H,5,1.0899,1,105.95621,3,-56.19793,0\H,6,1.00975,5,111.34671,
 1,59.71795,0\H,6,1.00975,5,111.34671,1,-59.71795,0\\Version=ES64L-G09R
 evE.01\State=1-A'\HF=-282.9715331\RMSD=5.178e-09\Dipole=-0.2568106,0.,
 0.7672255\Quadrupole=-3.9529307,2.6368917,1.3160389,0.,2.8042345,0.\PG

 Normal termination of Gaussian 09 at Sat Oct 15 18:33:32 2016.
