 Gaussian 09, Revision E.01,
 Gaussian 09:  ES64L-G09RevE.01 30-Nov-2015

 -------------
 #P HF cc-pV5Z
 -------------

 --------------------------
 start best geom PCCP paper
 --------------------------
 Symbolic Z-matrix:
 Charge =  0 Multiplicity = 1

                         Standard orientation:
 ---------------------------------------------------------------------
 Center     Atomic      Atomic             Coordinates (Angstroms)
 Number     Number       Type             X           Y           Z
 ---------------------------------------------------------------------
      1          6           0        0.000000    0.573396    0.000000
      2          8           0        0.957640    1.531040    0.000000
      3          8           0       -1.156728    0.877678    0.000000
      4          1           0        1.833849    1.134152    0.000000
      5          6           0        0.517981   -0.858483    0.000000
      6          7           0       -0.496418   -1.881566    0.000000
      7          1           0        1.159024   -0.981844    0.876153
      8          1           0        1.159024   -0.981844   -0.876153
      9          1           0       -1.096075   -1.779366    0.807682
     10          1           0       -1.096075   -1.779366   -0.807682
 ---------------------------------------------------------------------

 SCF Done:  E(RHF) =  -282.965888168     A.U. after   14 cycles

 The electronic state is 1-A'.
 Alpha  occ. eigenvalues --  -20.61687 -20.54854 -15.55735 -11.38504 -11.28955
 Alpha  occ. eigenvalues --   -1.46791  -1.37248  -1.20647  -0.97603  -0.83520
 Alpha  occ. eigenvalues --   -0.73932  -0.70602  -0.67279  -0.63205  -0.60813
 Alpha  occ. eigenvalues --   -0.59063  -0.54791  -0.48861  -0.47004  -0.41687
 Alpha virt. eigenvalues --    0.07272   0.10051   0.10854   0.13449   0.15566
 Alpha virt. eigenvalues --    0.16180   0.17683   0.21114   0.21966   0.23572
 Alpha virt. eigenvalues --    0.25748   0.29505   0.29520   0.31221   0.32237

 Mulliken charges:
               1
     1  C    0.529781
     2  O   -0.416435
     3  O   -0.450303
     4  H    0.305140
     5  C   -0.024901
     6  N   -0.497358
     7  H    0.056620
     8  H    0.056620
     9  H    0.220418
    10  H    0.220418
 Sum of Mulliken charges =  -0.00000

 Dipole moment (field-independent basis, Debye):
    X=              3.0313    Y=             -1.5737    Z=             -0.0000  Tot=              3.4155
 Quadrupole moment (field-independent basis, Debye-Ang):
   XX=            -26.5974   YY=            -38.9654   ZZ=            -27.2290
   XY=              3.9683   XZ=              0.0000   YZ=             -0.0000

 1\1\GINC-R01N18\SP\RHF\CC-pV5Z\C2H5N1O2\JIANGZHONGMING\15-Oct-2016\0\\
 #P HF cc-pV5Z\\start best geom PCCP paper\\0,1\C\O,1,1.35431\O,1,1.196
 08,2,120.26189\H,2,0.961906,1,110.63119,3,180.,0\C,1,1.52269,3,124.625
 53,2,180.,0\N,5,1.44073,1,115.35662,3,0.,0\H,5,1.09261,1,107.80356,3,-
 122.62433,0\H,5,1.09261,1,107.80356,3,122.62433,0\H,6,1.01113,5,110.22
 995,1,-58.35404,0\H,6,1.01113,5,110.22995,1,58.35404,0\\Version=ES64L-
 G09RevE.01\State=1-A'\HF=-282.9658882\RMSD=5.397e-09\Dipole=-1.2811017
 ,0.,0.405517\Quadrupole=-4.3263547,2.7520611,1.5742935,0.,-4.597656,0.

 Normal termination of Gaussian 09 at Sat Oct 15 18:41:43 2016.
