 Gaussian 09, Revision E.01,
 Gaussian 09:  ES64L-G09RevE.01 30-Nov-2015

 -------------
 #P HF cc-pV5Z
 -------------

 --------------------------
 start best geom PCCP paper
 --------------------------
 Symbolic Z-matrix:
 Charge =  0 Multiplicity = 1

                         Standard orientation:
 ---------------------------------------------------------------------
 Center     Atomic      Atomic             Coordinates (Angstroms)
 Number     Number       Type             X           Y           Z
 ---------------------------------------------------------------------
      1          6           0        0.000000    0.549747    0.000000
      2          8           0        0.985218    1.470653    0.000000
      3          8           0       -1.167485    0.837818    0.000000
      4          1           0        0.562653    2.338326    0.000000
      5          6           0        0.564972   -0.854997    0.000000
      6          7           0       -0.413127   -1.914567    0.000000
      7          1           0        1.214211   -0.944801    0.871558
      8          1           0        1.214211   -0.944801   -0.871558
      9          1           0       -1.015438   -1.841513    0.808581
     10          1           0       -1.015438   -1.841513   -0.808581
 ---------------------------------------------------------------------

 SCF Done:  E(RHF) =  -282.974825305     A.U. after   14 cycles

 The electronic state is 1-A'.
 Alpha  occ. eigenvalues --  -20.61585 -20.55338 -15.55045 -11.38590 -11.27699
 Alpha  occ. eigenvalues --   -1.47312  -1.36989  -1.19895  -0.98077  -0.81891
 Alpha  occ. eigenvalues --   -0.71227  -0.70184  -0.69857  -0.63267  -0.60515
 Alpha  occ. eigenvalues --   -0.58949  -0.53796  -0.49233  -0.46961  -0.41310
 Alpha virt. eigenvalues --    0.08944   0.10485   0.11815   0.12492   0.15828
 Alpha virt. eigenvalues --    0.17482   0.18083   0.20706   0.22126   0.22790
 Alpha virt. eigenvalues --    0.27065   0.28508   0.30147   0.32946   0.32987

 Mulliken charges:
               1
     1  C    0.556383
     2  O   -0.464886
     3  O   -0.506557
     4  H    0.343080
     5  C   -0.011656
     6  N   -0.491690
     7  H    0.074190
     8  H    0.074190
     9  H    0.213474
    10  H    0.213474
 Sum of Mulliken charges =  -0.00000

 Dipole moment (field-independent basis, Debye):
    X=              1.0593    Y=              0.7070    Z=             -0.0000  Tot=              1.2736
 Quadrupole moment (field-independent basis, Debye-Ang):
   XX=            -33.0529   YY=            -30.1699   ZZ=            -27.2377
   XY=              2.7999   XZ=              0.0000   YZ=             -0.0000

 1\1\GINC-R01N18\SP\RHF\CC-pV5Z\C2H5N1O2\JIANGZHONGMING\15-Oct-2016\0\\
 #P HF cc-pV5Z\\start best geom PCCP paper\\0,1\C\O,1,1.3486\O,1,1.2025
 ,2,123.0718\H,2,0.9651,1,107.1011,3,0.,0\C,1,1.5141,3,125.77,2,180.,0\
 N,5,1.442,1,115.3802,3,0.,0\H,5,1.0905,1,107.3709,3,-123.1312,0\H,5,1.
 0905,1,107.3709,3,123.1312,0\H,6,1.0109,5,110.5508,1,-58.6741,0\H,6,1.
 0109,5,110.5508,1,58.6741,0\\Version=ES64L-G09RevE.01\State=1-A'\HF=-2
 82.9748253\RMSD=5.182e-09\Dipole=-0.0813833,0.,0.4944066\Quadrupole=-3
 .0886143,2.1678531,0.9207613,0.,1.2095899,0.\PG=CS [SG(C2H1N1O2),X(H4)

 Normal termination of Gaussian 09 at Sat Oct 15 18:49:48 2016.
