 Gaussian 09, Revision E.01,
 Gaussian 09:  ES64L-G09RevE.01 30-Nov-2015

 -------------
 #P HF cc-pV5Z
 -------------

 ------
 VII_SP
 ------
 Symbolic Z-matrix:
 Charge =  0 Multiplicity = 1

                         Standard orientation:
 ---------------------------------------------------------------------
 Center     Atomic      Atomic             Coordinates (Angstroms)
 Number     Number       Type             X           Y           Z
 ---------------------------------------------------------------------
      1          6           0        0.000000    0.678907   -0.000000
      2          8           0       -1.337854    0.533471   -0.000000
      3          8           0        0.506518    1.764722   -0.000000
      4          1           0       -1.547449   -0.408206    0.000000
      5          6           0        0.827086   -0.604884    0.000000
      6          7           0        0.142184   -1.872117    0.000000
      7          1           0        1.477562   -0.542869    0.871458
      8          1           0        1.477562   -0.542869   -0.871458
      9          1           0       -0.357397   -2.115457    0.838185
     10          1           0       -0.357397   -2.115457   -0.838185
 ---------------------------------------------------------------------

 SCF Done:  E(RHF) =  -282.962809269     A.U. after   14 cycles

 The electronic state is 1-A'.
 Alpha  occ. eigenvalues --  -20.61267 -20.53814 -15.57751 -11.37995 -11.28926
 Alpha  occ. eigenvalues --   -1.46440  -1.36554  -1.21965  -0.97883  -0.83088
 Alpha  occ. eigenvalues --   -0.74437  -0.72607  -0.67137  -0.63538  -0.62305
 Alpha  occ. eigenvalues --   -0.57023  -0.56019  -0.48597  -0.47600  -0.40886
 Alpha virt. eigenvalues --    0.06868   0.10441   0.10855   0.13394   0.14378
 Alpha virt. eigenvalues --    0.16990   0.18000   0.20336   0.22585   0.23730
 Alpha virt. eigenvalues --    0.27215   0.29037   0.29403   0.30340   0.32499

 Mulliken charges:
               1
     1  C    0.522641
     2  O   -0.425942
     3  O   -0.465349
     4  H    0.311009
     5  C   -0.010066
     6  N   -0.559656
     7  H    0.085618
     8  H    0.085618
     9  H    0.228064
    10  H    0.228064
 Sum of Mulliken charges =  -0.00000

 Dipole moment (field-independent basis, Debye):
    X=             -0.9886    Y=             -4.5671    Z=              0.0000  Tot=              4.6729
 Quadrupole moment (field-independent basis, Debye-Ang):
   XX=            -29.8357   YY=            -37.5355   ZZ=            -26.8880
   XY=              3.1233   XZ=              0.0000   YZ=              0.0000

 1\1\GINC-R01N04\SP\RHF\CC-pV5Z\C2H5N1O2\JIANGZHONGMING\26-Dec-2016\0\\
 #P HF cc-pV5Z\\VII_SP\\0,1\C\O,1,1.345735504\O,1,1.198146815,2,121.212
 59845\H,2,0.96472032,1,108.75235786,3,180.,0\C,1,1.527150932,3,122.199
 81539,2,180.,0\N,5,1.440475779,1,118.81834237,3,180.,0\H,5,1.089222132
 ,1,105.99599442,3,56.3357356,0\H,5,1.089222132,1,105.99599442,3,-56.33
 57356,0\H,6,1.005658302,5,116.6839121,1,-68.87806909,0\H,6,1.005658302
 ,5,116.6839121,1,68.87806909,0\\Version=ES64L-G09RevE.01\State=1-A'\HF
 =-282.9628093\RMSD=6.451e-09\Dipole=-1.7442901,0.,0.5808679\Quadrupole

 Normal termination of Gaussian 09 at Mon Dec 26 22:47:08 2016.
