 Gaussian 09, Revision E.01,
 Gaussian 09:  ES64L-G09RevE.01 30-Nov-2015

 -------------
 #P HF cc-pV5Z
 -------------

 -------
 VIII_SP
 -------
 Symbolic Z-matrix:
 Charge =  0 Multiplicity = 1

                         Standard orientation:
 ---------------------------------------------------------------------
 Center     Atomic      Atomic             Coordinates (Angstroms)
 Number     Number       Type             X           Y           Z
 ---------------------------------------------------------------------
      1          6           0        0.546143    0.148212    0.012628
      2          8           0        1.729714   -0.499968   -0.044362
      3          8           0        0.511357    1.343991    0.036745
      4          1           0        1.592593   -1.450896   -0.085742
      5          6           0       -0.679769   -0.738038    0.076616
      6          7           0       -1.874850    0.037759   -0.172157
      7          1           0       -0.657798   -1.217003    1.063110
      8          1           0       -0.576213   -1.530916   -0.669685
      9          1           0       -2.658726   -0.288884    0.371019
     10          1           0       -1.702724    1.010149    0.051861
 ---------------------------------------------------------------------

 SCF Done:  E(RHF) =  -282.963209594     A.U. after   14 cycles

 The electronic state is 1-A.
 Alpha  occ. eigenvalues --  -20.61844 -20.54990 -15.55166 -11.39000 -11.28904
 Alpha  occ. eigenvalues --   -1.47107  -1.37541  -1.20094  -0.97739  -0.83641
 Alpha  occ. eigenvalues --   -0.74589  -0.68190  -0.67371  -0.65538  -0.60246
 Alpha  occ. eigenvalues --   -0.58445  -0.56452  -0.48996  -0.46075  -0.41083
 Alpha virt. eigenvalues --    0.07162   0.09303   0.11922   0.13627   0.15067
 Alpha virt. eigenvalues --    0.16895   0.18136   0.21193   0.22048   0.23611
 Alpha virt. eigenvalues --    0.25710   0.27772   0.30127   0.32674   0.34419

 Mulliken charges:
               1
     1  C    0.536227
     2  O   -0.409916
     3  O   -0.462076
     4  H    0.306987
     5  C    0.078725
     6  N   -0.505735
     7  H    0.002346
     8  H    0.010460
     9  H    0.193231
    10  H    0.249751
 Sum of Mulliken charges =  -0.00000

 Dipole moment (field-independent basis, Debye):
    X=             -1.2899    Y=             -4.1582    Z=              1.2827  Tot=              4.5387
 Quadrupole moment (field-independent basis, Debye-Ang):
   XX=            -31.2588   YY=            -28.6009   ZZ=            -30.2327
   XY=             -3.5776   XZ=             -3.5527   YZ=              0.0300

 1\1\GINC-R01N06\SP\RHF\CC-pV5Z\C2H5N1O2\JIANGZHONGMING\26-Dec-2016\0\\
 #P HF cc-pV5Z\\VIII_SP\\0,1\C\O,1,1.350639199\O,1,1.196528699,2,120.39
 32146\H,2,0.961654864,1,110.5740242,3,-178.19299,0\C,1,1.514064823,3,1
 24.0964059,2,178.4170875,0\N,5,1.446363011,1,110.3514816,3,14.5342408,
 0\H,5,1.096841522,1,106.104928,3,-109.3302257,0\H,5,1.093775389,1,108.
 591649,3,135.7513316,0\H,6,1.008066405,5,112.0878145,1,-144.9571968,0\
 H,6,1.012597049,5,109.6684359,1,-23.85712294,0\\Version=ES64L-G09RevE.
 01\State=1-A\HF=-282.9632096\RMSD=3.978e-09\Dipole=-1.6793514,0.516249

 Normal termination of Gaussian 09 at Mon Dec 26 21:32:27 2016.
