 Gaussian 16, Revision C.01,
 Gaussian 16:  ES64L-G16RevC.01  3-Jul-2019

 ----------------------
 #p CCSD(T) jun-cc-pVTZ
 ----------------------

 --
 sp
 --
 Symbolic Z-matrix:
 Charge =  0 Multiplicity = 1

                         Standard orientation:
 ---------------------------------------------------------------------
 Center     Atomic      Atomic             Coordinates (Angstroms)
 Number     Number       Type             X           Y           Z
 ---------------------------------------------------------------------
      1          6           0       -1.877977    0.021726   -0.173361
      2          8           0       -2.099924    1.124397   -0.661773
      3          7           0       -0.625541   -0.379254    0.159093
      4          1           0       -0.430668   -1.313804    0.486075
      5          6           0        0.522360    0.453701   -0.102507
      6          1           0        0.397219    0.916136   -1.086597
      7          6           0        0.674728    1.557592    0.948615
      8          1           0       -0.236164    2.154968    0.963284
      9          1           0        0.832942    1.115525    1.934034
     10          1           0        1.518797    2.210792    0.718425
     11          6           0        1.745970   -0.455393   -0.111647
     12          8           0        1.717731   -1.587932    0.347592
     13          7           0        2.869617    0.099271   -0.628193
     14          1           0        2.862329    1.005520   -1.058779
     15          1           0        3.712443   -0.448567   -0.647634
     16          6           0       -2.980578   -0.972676    0.104566
     17          1           0       -3.511422   -1.170421   -0.826797
     18          1           0       -2.615478   -1.911364    0.521122
     19          1           0       -3.688007   -0.520325    0.800023
 ---------------------------------------------------------------------

 SCF Done:  E(RHF) =  -454.005672069     A.U. after   13 cycles
 E2 =    -0.1720907716D+01 EUMP2 =    -0.45572657978547D+03
 CCSD(T)
 CCSD(T)= -0.45584391087D+03

 The electronic state is 1-A.
 Alpha  occ. eigenvalues --  -20.53746 -20.51283 -15.60030 -15.58243 -11.36754
 Alpha  occ. eigenvalues --  -11.34854 -11.28899 -11.23413 -11.22989  -1.40108
 Alpha  occ. eigenvalues --   -1.37590  -1.23820  -1.22984  -1.05600  -0.99034
 Alpha  occ. eigenvalues --   -0.90624  -0.81824  -0.78681  -0.75264  -0.69387
 Alpha  occ. eigenvalues --   -0.66740  -0.65287  -0.63393  -0.61313  -0.59373
 Alpha  occ. eigenvalues --   -0.58269  -0.56805  -0.54939  -0.54292  -0.52892
 Alpha  occ. eigenvalues --   -0.49591  -0.44194  -0.43339  -0.42185  -0.39289
 Alpha virt. eigenvalues --    0.04193   0.04784   0.05497   0.06387   0.07411
 Alpha virt. eigenvalues --    0.08001   0.08344   0.09665   0.09825   0.10364
 Alpha virt. eigenvalues --    0.11219   0.11778   0.12945   0.14101   0.14116

 Mulliken charges:
               1
     1  C    0.159720
     2  O   -0.608083
     3  N   -0.009521
     4  H    0.170349
     5  C   -0.046258
     6  H    0.257416
     7  C   -0.588782
     8  H    0.223971
     9  H    0.201123
    10  H    0.193459
    11  C    0.345888
    12  O   -0.566315
    13  N   -0.234198
    14  H    0.187170
    15  H    0.179922
    16  C   -0.473791
    17  H    0.218086
    18  H    0.169650
    19  H    0.220192
 Sum of Mulliken charges =  -0.00000

 Dipole moment (field-independent basis, Debye):
    X=              2.4180    Y=              0.2058    Z=             -0.1722  Tot=              2.4328
 Quadrupole moment (field-independent basis, Debye-Ang):
   XX=            -47.2966   YY=            -59.6917   ZZ=            -54.5846
   XY=             13.8977   XZ=             -8.2808   YZ=              2.0557

 SD=-455.7647753\CCSD(T)=-455.8439109\RMSD=6.535e-09\PG=C01 [X(C5H10N2O
 Normal termination of Gaussian 16 at Wed Jan 27 21:31:55 2021.
