 Gaussian 16, Revision C.01,
 Gaussian 16:  ES64L-G16RevC.01  3-Jul-2019

 -----------------
 #p HF/jun-cc-pv5z
 -----------------

 --
 sp
 --
 Symbolic Z-matrix:
 Charge =  0 Multiplicity = 1

                         Standard orientation:
 ---------------------------------------------------------------------
 Center     Atomic      Atomic             Coordinates (Angstroms)
 Number     Number       Type             X           Y           Z
 ---------------------------------------------------------------------
      1          6           0       -1.877977    0.021726   -0.173361
      2          8           0       -2.099924    1.124397   -0.661773
      3          7           0       -0.625541   -0.379254    0.159093
      4          1           0       -0.430668   -1.313804    0.486075
      5          6           0        0.522360    0.453701   -0.102507
      6          1           0        0.397219    0.916136   -1.086597
      7          6           0        0.674728    1.557592    0.948615
      8          1           0       -0.236164    2.154968    0.963284
      9          1           0        0.832942    1.115525    1.934034
     10          1           0        1.518797    2.210792    0.718425
     11          6           0        1.745970   -0.455393   -0.111647
     12          8           0        1.717731   -1.587932    0.347592
     13          7           0        2.869617    0.099271   -0.628193
     14          1           0        2.862329    1.005520   -1.058779
     15          1           0        3.712443   -0.448567   -0.647634
     16          6           0       -2.980578   -0.972676    0.104566
     17          1           0       -3.511422   -1.170421   -0.826797
     18          1           0       -2.615478   -1.911364    0.521122
     19          1           0       -3.688007   -0.520325    0.800023
 ---------------------------------------------------------------------

 SCF Done:  E(RHF) =  -454.041266911     A.U. after   12 cycles

 The electronic state is 1-A.
 Alpha  occ. eigenvalues --  -20.53397 -20.50940 -15.59800 -15.57981 -11.36597
 Alpha  occ. eigenvalues --  -11.34706 -11.28749 -11.23293 -11.22871  -1.39994
 Alpha  occ. eigenvalues --   -1.37482  -1.23744  -1.22917  -1.05560  -0.99007
 Alpha  occ. eigenvalues --   -0.90598  -0.81801  -0.78669  -0.75260  -0.69380
 Alpha  occ. eigenvalues --   -0.66743  -0.65285  -0.63397  -0.61321  -0.59379
 Alpha  occ. eigenvalues --   -0.58279  -0.56821  -0.54955  -0.54306  -0.52912
 Alpha  occ. eigenvalues --   -0.49606  -0.44204  -0.43358  -0.42203  -0.39311
 Alpha virt. eigenvalues --    0.02643   0.03416   0.03910   0.04399   0.05309
 Alpha virt. eigenvalues --    0.05708   0.05801   0.06947   0.07101   0.07589
 Alpha virt. eigenvalues --    0.08356   0.08529   0.09334   0.09870   0.10267

 Mulliken charges:
               1
     1  C    0.450858
     2  O   -0.674995
     3  N   -0.427108
     4  H    0.363085
     5  C    0.177970
     6  H    0.140788
     7  C   -0.304749
     8  H    0.121437
     9  H    0.122800
    10  H    0.053232
    11  C    0.682744
    12  O   -0.688266
    13  N   -0.767800
    14  H    0.356363
    15  H    0.357968
    16  C   -0.252165
    17  H    0.099635
    18  H    0.076245
    19  H    0.111957
 Sum of Mulliken charges =  -0.00000

 Dipole moment (field-independent basis, Debye):
    X=              2.4150    Y=              0.2075    Z=             -0.1722  Tot=              2.4300
 Quadrupole moment (field-independent basis, Debye-Ang):
   XX=            -47.2710   YY=            -59.6315   ZZ=            -54.5531
   XY=             13.8791   XZ=             -8.2683   YZ=              2.0434

 Normal termination of Gaussian 16 at Fri Jan 29 03:04:03 2021.
