 Gaussian 16, Revision C.01,
 Gaussian 16:  ES64L-G16RevC.01  3-Jul-2019

 ------------------
 #p MP2/jun-cc-pvqz
 ------------------

 --
 sp
 --
 Symbolic Z-matrix:
 Charge =  0 Multiplicity = 1

                         Standard orientation:
 ---------------------------------------------------------------------
 Center     Atomic      Atomic             Coordinates (Angstroms)
 Number     Number       Type             X           Y           Z
 ---------------------------------------------------------------------
      1          6           0       -1.877977    0.021726   -0.173361
      2          8           0       -2.099924    1.124397   -0.661773
      3          7           0       -0.625541   -0.379254    0.159093
      4          1           0       -0.430668   -1.313804    0.486075
      5          6           0        0.522360    0.453701   -0.102507
      6          1           0        0.397219    0.916136   -1.086597
      7          6           0        0.674728    1.557592    0.948615
      8          1           0       -0.236164    2.154968    0.963284
      9          1           0        0.832942    1.115525    1.934034
     10          1           0        1.518797    2.210792    0.718425
     11          6           0        1.745970   -0.455393   -0.111647
     12          8           0        1.717731   -1.587932    0.347592
     13          7           0        2.869617    0.099271   -0.628193
     14          1           0        2.862329    1.005520   -1.058779
     15          1           0        3.712443   -0.448567   -0.647634
     16          6           0       -2.980578   -0.972676    0.104566
     17          1           0       -3.511422   -1.170421   -0.826797
     18          1           0       -2.615478   -1.911364    0.521122
     19          1           0       -3.688007   -0.520325    0.800023
 ---------------------------------------------------------------------

 SCF Done:  E(RHF) =  -454.034743294     A.U. after   12 cycles
 E2 =    -0.1833839601D+01 EUMP2 =    -0.45586858289434D+03

 The electronic state is 1-A.
 Alpha  occ. eigenvalues --  -20.53469 -20.51012 -15.59837 -15.58021 -11.36622
 Alpha  occ. eigenvalues --  -11.34732 -11.28776 -11.23313 -11.22889  -1.40017
 Alpha  occ. eigenvalues --   -1.37504  -1.23759  -1.22931  -1.05569  -0.99015
 Alpha  occ. eigenvalues --   -0.90604  -0.81805  -0.78672  -0.75260  -0.69381
 Alpha  occ. eigenvalues --   -0.66742  -0.65286  -0.63397  -0.61320  -0.59378
 Alpha  occ. eigenvalues --   -0.58277  -0.56818  -0.54952  -0.54303  -0.52908
 Alpha  occ. eigenvalues --   -0.49603  -0.44200  -0.43354  -0.42199  -0.39307
 Alpha virt. eigenvalues --    0.03390   0.04077   0.04696   0.05378   0.06331
 Alpha virt. eigenvalues --    0.06879   0.07005   0.08277   0.08473   0.08893
 Alpha virt. eigenvalues --    0.09774   0.10133   0.11121   0.11926   0.12154

 Mulliken charges:
               1
     1  C    0.634634
     2  O   -0.734932
     3  N   -0.292370
     4  H    0.234936
     5  C    0.229784
     6  H    0.296045
     7  C   -0.759849
     8  H    0.229155
     9  H    0.188055
    10  H    0.202492
    11  C    0.817062
    12  O   -0.803537
    13  N   -0.728179
    14  H    0.238527
    15  H    0.251132
    16  C   -0.624038
    17  H    0.230581
    18  H    0.165588
    19  H    0.224914
 Sum of Mulliken charges =  -0.00000

 Dipole moment (field-independent basis, Debye):
    X=              2.4154    Y=              0.2072    Z=             -0.1720  Tot=              2.4303
 Quadrupole moment (field-independent basis, Debye-Ang):
   XX=            -47.2791   YY=            -59.6389   ZZ=            -54.5628
   XY=             13.8813   XZ=             -8.2695   YZ=              2.0424

 Normal termination of Gaussian 16 at Tue Jan 26 19:49:32 2021.
