 Gaussian 16, Revision C.01,
 Gaussian 16:  ES64L-G16RevC.01  3-Jul-2019

 ----------------------
 #p CCSD(T) jun-cc-pVTZ
 ----------------------

 --
 sp
 --
 Symbolic Z-matrix:
 Charge =  0 Multiplicity = 1

                         Standard orientation:
 ---------------------------------------------------------------------
 Center     Atomic      Atomic             Coordinates (Angstroms)
 Number     Number       Type             X           Y           Z
 ---------------------------------------------------------------------
      1          6           0       -1.679689   -0.020617   -0.068079
      2          8           0       -1.655879   -0.917180   -0.910191
      3          7           0       -0.589521    0.733189    0.212750
      4          1           0       -0.639508    1.410107    0.955962
      5          6           0        0.685139    0.572546   -0.479582
      6          1           0        0.443945    0.290369   -1.507075
      7          6           0        1.462237    1.872979   -0.442263
      8          1           0        0.884606    2.669376   -0.913973
      9          1           0        1.697077    2.148621    0.587143
     10          1           0        2.408543    1.758587   -0.969345
     11          6           0        1.486684   -0.574884    0.159823
     12          8           0        2.471896   -0.375594    0.853341
     13          7           0        0.992835   -1.803460   -0.125627
     14          1           0        0.091669   -1.882214   -0.579466
     15          1           0        1.394162   -2.594820    0.348790
     16          6           0       -2.931694    0.305487    0.707724
     17          1           0       -3.251706   -0.589008    1.242295
     18          1           0       -2.798932    1.122872    1.416374
     19          1           0       -3.717240    0.567131   -0.001500
 ---------------------------------------------------------------------

 SCF Done:  E(RHF) =  -454.005449269     A.U. after   13 cycles
 E2 =    -0.1723321735D+01 EUMP2 =    -0.45572877100338D+03
 CCSD(T)
 CCSD(T)= -0.45584628709D+03

 The electronic state is 1-A.
 Alpha  occ. eigenvalues --  -20.53357 -20.51863 -15.60715 -15.57109 -11.36985
 Alpha  occ. eigenvalues --  -11.34686 -11.28893 -11.25096 -11.22866  -1.39860
 Alpha  occ. eigenvalues --   -1.37752  -1.25603  -1.20402  -1.06293  -1.00351
 Alpha  occ. eigenvalues --   -0.90022  -0.82070  -0.78387  -0.73083  -0.70255
 Alpha  occ. eigenvalues --   -0.67783  -0.67038  -0.62667  -0.60728  -0.60115
 Alpha  occ. eigenvalues --   -0.58547  -0.56162  -0.54090  -0.53882  -0.53238
 Alpha  occ. eigenvalues --   -0.51892  -0.45033  -0.44035  -0.40866  -0.39666
 Alpha virt. eigenvalues --    0.03485   0.04819   0.05954   0.06136   0.07108
 Alpha virt. eigenvalues --    0.07788   0.08044   0.09321   0.09793   0.10665
 Alpha virt. eigenvalues --    0.11112   0.11720   0.12821   0.13380   0.14017

 Mulliken charges:
               1
     1  C    0.304084
     2  O   -0.649342
     3  N   -0.106355
     4  H    0.126964
     5  C    0.027746
     6  H    0.258259
     7  C   -0.545625
     8  H    0.198301
     9  H    0.204317
    10  H    0.201028
    11  C    0.231645
    12  O   -0.554724
    13  N   -0.248191
    14  H    0.247505
    15  H    0.167491
    16  C   -0.474903
    17  H    0.220854
    18  H    0.167344
    19  H    0.223600
 Sum of Mulliken charges =  -0.00000

 Dipole moment (field-independent basis, Debye):
    X=             -3.1195    Y=              2.0290    Z=              0.7690  Tot=              3.7999
 Quadrupole moment (field-independent basis, Debye-Ang):
   XX=            -61.9076   YY=            -48.7794   ZZ=            -56.3524
   XY=             -3.3521   XZ=             -9.8569   YZ=             -1.3546

 455.7665861\CCSD(T)=-455.8462871\RMSD=6.392e-09\PG=C01 [X(C5H10N2O2)]\
 Normal termination of Gaussian 16 at Wed Jan 27 08:32:47 2021.
