 Gaussian 16, Revision C.01,
 Gaussian 16:  ES64L-G16RevC.01  3-Jul-2019

 -----------------
 #p HF/jun-cc-pv5z
 -----------------

 --
 sp
 --
 Symbolic Z-matrix:
 Charge =  0 Multiplicity = 1

                         Standard orientation:
 ---------------------------------------------------------------------
 Center     Atomic      Atomic             Coordinates (Angstroms)
 Number     Number       Type             X           Y           Z
 ---------------------------------------------------------------------
      1          6           0       -1.679689   -0.020617   -0.068079
      2          8           0       -1.655879   -0.917180   -0.910191
      3          7           0       -0.589521    0.733189    0.212750
      4          1           0       -0.639508    1.410107    0.955962
      5          6           0        0.685139    0.572546   -0.479582
      6          1           0        0.443945    0.290369   -1.507075
      7          6           0        1.462237    1.872979   -0.442263
      8          1           0        0.884606    2.669376   -0.913973
      9          1           0        1.697077    2.148621    0.587143
     10          1           0        2.408543    1.758587   -0.969345
     11          6           0        1.486684   -0.574884    0.159823
     12          8           0        2.471896   -0.375594    0.853341
     13          7           0        0.992835   -1.803460   -0.125627
     14          1           0        0.091669   -1.882214   -0.579466
     15          1           0        1.394162   -2.594820    0.348790
     16          6           0       -2.931694    0.305487    0.707724
     17          1           0       -3.251706   -0.589008    1.242295
     18          1           0       -2.798932    1.122872    1.416374
     19          1           0       -3.717240    0.567131   -0.001500
 ---------------------------------------------------------------------

 SCF Done:  E(RHF) =  -454.041009432     A.U. after   12 cycles

 The electronic state is 1-A.
 Alpha  occ. eigenvalues --  -20.53014 -20.51519 -15.60457 -15.56880 -11.36841
 Alpha  occ. eigenvalues --  -11.34531 -11.28745 -11.24975 -11.22746  -1.39755
 Alpha  occ. eigenvalues --   -1.37642  -1.25530  -1.20336  -1.06253  -1.00323
 Alpha  occ. eigenvalues --   -0.89998  -0.82050  -0.78369  -0.73082  -0.70254
 Alpha  occ. eigenvalues --   -0.67788  -0.67039  -0.62677  -0.60734  -0.60122
 Alpha  occ. eigenvalues --   -0.58563  -0.56176  -0.54101  -0.53900  -0.53251
 Alpha  occ. eigenvalues --   -0.51911  -0.45053  -0.44051  -0.40885  -0.39685
 Alpha virt. eigenvalues --    0.02256   0.03447   0.04066   0.04201   0.05241
 Alpha virt. eigenvalues --    0.05573   0.05835   0.06622   0.06872   0.07845
 Alpha virt. eigenvalues --    0.08097   0.08614   0.09323   0.09921   0.10011

 Mulliken charges:
               1
     1  C    0.490036
     2  O   -0.682885
     3  N   -0.337499
     4  H    0.327135
     5  C    0.098281
     6  H    0.176555
     7  C   -0.242447
     8  H    0.038511
     9  H    0.091769
    10  H    0.072505
    11  C    0.622595
    12  O   -0.640760
    13  N   -0.775844
    14  H    0.412149
    15  H    0.341062
    16  C   -0.305605
    17  H    0.115778
    18  H    0.073648
    19  H    0.125017
 Sum of Mulliken charges =  -0.00000

 Dipole moment (field-independent basis, Debye):
    X=             -3.1176    Y=              2.0261    Z=              0.7682  Tot=              3.7966
 Quadrupole moment (field-independent basis, Debye-Ang):
   XX=            -61.8616   YY=            -48.7455   ZZ=            -56.3114
   XY=             -3.3458   XZ=             -9.8389   YZ=             -1.3460

 Normal termination of Gaussian 16 at Fri Jan 29 01:36:01 2021.
