 Gaussian 16, Revision C.01,
 Gaussian 16:  ES64L-G16RevC.01  3-Jul-2019

 ------------------
 #p MP2/jun-cc-pvqz
 ------------------

 --
 sp
 --
 Symbolic Z-matrix:
 Charge =  0 Multiplicity = 1

                         Standard orientation:
 ---------------------------------------------------------------------
 Center     Atomic      Atomic             Coordinates (Angstroms)
 Number     Number       Type             X           Y           Z
 ---------------------------------------------------------------------
      1          6           0       -1.679689   -0.020617   -0.068079
      2          8           0       -1.655879   -0.917180   -0.910191
      3          7           0       -0.589521    0.733189    0.212750
      4          1           0       -0.639508    1.410107    0.955962
      5          6           0        0.685139    0.572546   -0.479582
      6          1           0        0.443945    0.290369   -1.507075
      7          6           0        1.462237    1.872979   -0.442263
      8          1           0        0.884606    2.669376   -0.913973
      9          1           0        1.697077    2.148621    0.587143
     10          1           0        2.408543    1.758587   -0.969345
     11          6           0        1.486684   -0.574884    0.159823
     12          8           0        2.471896   -0.375594    0.853341
     13          7           0        0.992835   -1.803460   -0.125627
     14          1           0        0.091669   -1.882214   -0.579466
     15          1           0        1.394162   -2.594820    0.348790
     16          6           0       -2.931694    0.305487    0.707724
     17          1           0       -3.251706   -0.589008    1.242295
     18          1           0       -2.798932    1.122872    1.416374
     19          1           0       -3.717240    0.567131   -0.001500
 ---------------------------------------------------------------------

 SCF Done:  E(RHF) =  -454.034490759     A.U. after   13 cycles
 E2 =    -0.1836168207D+01 EUMP2 =    -0.45587065896572D+03

 The electronic state is 1-A.
 Alpha  occ. eigenvalues --  -20.53086 -20.51591 -15.60496 -15.56918 -11.36866
 Alpha  occ. eigenvalues --  -11.34555 -11.28771 -11.24995 -11.22765  -1.39777
 Alpha  occ. eigenvalues --   -1.37664  -1.25545  -1.20350  -1.06262  -1.00331
 Alpha  occ. eigenvalues --   -0.90003  -0.82054  -0.78373  -0.73082  -0.70254
 Alpha  occ. eigenvalues --   -0.67787  -0.67039  -0.62675  -0.60733  -0.60121
 Alpha  occ. eigenvalues --   -0.58560  -0.56173  -0.54099  -0.53897  -0.53248
 Alpha  occ. eigenvalues --   -0.51908  -0.45049  -0.44047  -0.40882  -0.39681
 Alpha virt. eigenvalues --    0.02838   0.04099   0.04974   0.05128   0.06176
 Alpha virt. eigenvalues --    0.06582   0.06874   0.07920   0.08331   0.09274
 Alpha virt. eigenvalues --    0.09584   0.10158   0.11079   0.11701   0.11914

 Mulliken charges:
               1
     1  C    0.702315
     2  O   -0.764951
     3  N   -0.343906
     4  H    0.192160
     5  C    0.312091
     6  H    0.330692
     7  C   -0.799817
     8  H    0.187234
     9  H    0.191010
    10  H    0.224144
    11  C    0.745409
    12  O   -0.810409
    13  N   -0.696504
    14  H    0.323167
    15  H    0.221398
    16  C   -0.626826
    17  H    0.214094
    18  H    0.164761
    19  H    0.233940
 Sum of Mulliken charges =  -0.00000

 Dipole moment (field-independent basis, Debye):
    X=             -3.1177    Y=              2.0263    Z=              0.7685  Tot=              3.7969
 Quadrupole moment (field-independent basis, Debye-Ang):
   XX=            -61.8695   YY=            -48.7532   ZZ=            -56.3206
   XY=             -3.3463   XZ=             -9.8400   YZ=             -1.3448

 Normal termination of Gaussian 16 at Tue Jan 26 18:32:06 2021.
