 Gaussian 16, Revision C.01,
 Gaussian 16:  ES64L-G16RevC.01  3-Jul-2019

 ------------------
 #p mp2/jun-cc-pvqz
 ------------------

 --------------------------
 start best geom PCCP paper
 --------------------------
 Symbolic Z-matrix:
 Charge =  0 Multiplicity = 1

                         Standard orientation:
 ---------------------------------------------------------------------
 Center     Atomic      Atomic             Coordinates (Angstroms)
 Number     Number       Type             X           Y           Z
 ---------------------------------------------------------------------
      1          7           0       -1.777783    0.124928   -0.048772
      2          1           0       -2.176227    0.113925   -0.975812
      3          6           0       -0.642823   -0.786994    0.071611
      4          6           0        0.686110   -0.041625    0.003814
      5          1           0       -0.662886   -1.287754    1.038553
      6          1           0       -0.617441   -1.563047   -0.691946
      7          8           0        1.742553   -0.607441   -0.059578
      8          8           0        0.574514    1.288852    0.038515
      9          1           0       -2.512293   -0.090938    0.606942
     10          1           0       -0.382931    1.473747    0.079614
 ---------------------------------------------------------------------

 SCF Done:  E(RHF) =  -282.965779627     A.U. after   12 cycles
 E2 =    -0.1090138432D+01 EUMP2 =    -0.28405591805897D+03

 The electronic state is 1-A.
 Alpha  occ. eigenvalues --  -20.59605 -20.53175 -15.58678 -11.37371 -11.28995
 Alpha  occ. eigenvalues --   -1.45431  -1.35667  -1.22413  -0.97958  -0.81261
 Alpha  occ. eigenvalues --   -0.73748  -0.71506  -0.67785  -0.62819  -0.62368
 Alpha  occ. eigenvalues --   -0.56322  -0.55867  -0.47426  -0.46610  -0.42519
 Alpha virt. eigenvalues --    0.02785   0.04983   0.05647   0.06748   0.08947
 Alpha virt. eigenvalues --    0.09010   0.09092   0.10050   0.10228   0.13312
 Alpha virt. eigenvalues --    0.14782   0.15793   0.16424   0.17417   0.18389

 Mulliken charges:
               1
     1  N   -0.591322
     2  H    0.191733
     3  C   -0.118454
     4  C    0.711226
     5  H    0.231100
     6  H    0.222257
     7  O   -0.602691
     8  O   -0.575459
     9  H    0.192346
    10  H    0.339264
 Sum of Mulliken charges =  -0.00000

 Dipole moment (field-independent basis, Debye):
    X=             -5.8959    Y=             -0.7051    Z=             -0.0101  Tot=              5.9379
 Quadrupole moment (field-independent basis, Debye-Ang):
   XX=            -32.2004   YY=            -31.2826   ZZ=            -27.1395
   XY=              1.8282   XZ=              0.5506   YZ=             -0.4817

 Normal termination of Gaussian 16 at Fri Jan 15 17:29:03 2021.
