 Gaussian 16, Revision C.01,
 Gaussian 16:  ES64L-G16RevC.01  3-Jul-2019

 ------------------
 #p mp2/jun-cc-pvqz
 ------------------

 --------------------------
 start best geom PCCP paper
 --------------------------
 Symbolic Z-matrix:
 Charge =  0 Multiplicity = 1

                         Standard orientation:
 ---------------------------------------------------------------------
 Center     Atomic      Atomic             Coordinates (Angstroms)
 Number     Number       Type             X           Y           Z
 ---------------------------------------------------------------------
      1          6           0        0.618518   -0.113452    0.015582
      2          8           0        0.629857    1.232314    0.102216
      3          8           0        1.611391   -0.762918   -0.179712
      4          1           0        1.543352    1.512541   -0.033863
      5          6           0       -0.754494   -0.683284    0.258311
      6          7           0       -1.797230    0.162725   -0.300561
      7          1           0       -0.825344   -0.835413    1.343137
      8          1           0       -0.780740   -1.661095   -0.214728
      9          1           0       -2.709920   -0.223225   -0.105836
     10          1           0       -1.760866    1.093359    0.091830
 ---------------------------------------------------------------------

 SCF Done:  E(RHF) =  -282.966088073     A.U. after   12 cycles
 E2 =    -0.1086382059D+01 EUMP2 =    -0.28405247013233D+03

 The electronic state is 1-A.
 Alpha  occ. eigenvalues --  -20.61566 -20.54958 -15.55577 -11.38720 -11.27762
 Alpha  occ. eigenvalues --   -1.47228  -1.36698  -1.20028  -0.97907  -0.82939
 Alpha  occ. eigenvalues --   -0.71760  -0.69131  -0.67173  -0.65057  -0.60206
 Alpha  occ. eigenvalues --   -0.58594  -0.55981  -0.49032  -0.46084  -0.40815
 Alpha virt. eigenvalues --    0.03902   0.04800   0.05986   0.06539   0.08700
 Alpha virt. eigenvalues --    0.08814   0.09065   0.11345   0.11684   0.14050
 Alpha virt. eigenvalues --    0.15155   0.15525   0.16152   0.16798   0.17143

 Mulliken charges:
               1
     1  C    0.723212
     2  O   -0.538944
     3  O   -0.618709
     4  H    0.286598
     5  C   -0.097613
     6  N   -0.604705
     7  H    0.218505
     8  H    0.229631
     9  H    0.185524
    10  H    0.216502
 Sum of Mulliken charges =  -0.00000

 Dipole moment (field-independent basis, Debye):
    X=             -1.9047    Y=              1.1129    Z=              1.6075  Tot=              2.7295
 Quadrupole moment (field-independent basis, Debye-Ang):
   XX=            -28.5124   YY=            -28.6476   ZZ=            -31.0591
   XY=              6.1975   XZ=             -1.9603   YZ=             -0.2782

 Normal termination of Gaussian 16 at Fri Jan 15 17:36:15 2021.
