 Gaussian 16, Revision C.01,
 Gaussian 16:  ES64L-G16RevC.01  3-Jul-2019

 ------------------
 #p mp2/jun-cc-pvqz
 ------------------

 --------------------------
 start best geom PCCP paper
 --------------------------
 Symbolic Z-matrix:
 Charge =  0 Multiplicity = 1

                         Standard orientation:
 ---------------------------------------------------------------------
 Center     Atomic      Atomic             Coordinates (Angstroms)
 Number     Number       Type             X           Y           Z
 ---------------------------------------------------------------------
      1          6           0        0.533710    0.102893    0.014867
      2          8           0        1.632185   -0.670799   -0.066880
      3          8           0        0.575034    1.304539    0.045254
      4          1           0        2.393950   -0.078239   -0.074783
      5          6           0       -0.719436   -0.723120    0.103930
      6          7           0       -1.876755    0.096522   -0.192365
      7          1           0       -0.714656   -1.160119    1.109923
      8          1           0       -0.636201   -1.548521   -0.602525
      9          1           0       -2.714348   -0.276671    0.227657
     10          1           0       -1.734852    1.039339    0.146516
 ---------------------------------------------------------------------

 SCF Done:  E(RHF) =  -282.968132738     A.U. after   12 cycles
 E2 =    -0.1086568122D+01 EUMP2 =    -0.28405470086033D+03

 The electronic state is 1-A.
 Alpha  occ. eigenvalues --  -20.61766 -20.55411 -15.54747 -11.39002 -11.27681
 Alpha  occ. eigenvalues --   -1.47527  -1.37176  -1.19499  -0.98326  -0.81614
 Alpha  occ. eigenvalues --   -0.72377  -0.71210  -0.67255  -0.63424  -0.60436
 Alpha  occ. eigenvalues --   -0.57833  -0.56590  -0.49239  -0.46293  -0.40425
 Alpha virt. eigenvalues --    0.04113   0.04759   0.05921   0.06535   0.08604
 Alpha virt. eigenvalues --    0.08866   0.08906   0.11260   0.12082   0.13993
 Alpha virt. eigenvalues --    0.15026   0.15563   0.16227   0.16791   0.18388

 Mulliken charges:
               1
     1  C    0.698070
     2  O   -0.563134
     3  O   -0.615359
     4  H    0.297647
     5  C   -0.079051
     6  N   -0.628147
     7  H    0.226021
     8  H    0.240945
     9  H    0.188441
    10  H    0.234566
 Sum of Mulliken charges =  -0.00000

 Dipole moment (field-independent basis, Debye):
    X=              0.0724    Y=             -1.8012    Z=              1.3422  Tot=              2.2475
 Quadrupole moment (field-independent basis, Debye-Ang):
   XX=            -23.6700   YY=            -33.2731   ZZ=            -30.5025
   XY=              1.2275   XZ=             -3.3797   YZ=              0.1034

 Normal termination of Gaussian 16 at Fri Jan 15 17:51:05 2021.
