 Gaussian 16, Revision C.01,
 Gaussian 16:  ES64L-G16RevC.01  3-Jul-2019

 ------------------
 #p mp2/jun-cc-pvqz
 ------------------

 --------------------------
 start best geom PCCP paper
 --------------------------
 Symbolic Z-matrix:
 Charge =  0 Multiplicity = 1

                         Standard orientation:
 ---------------------------------------------------------------------
 Center     Atomic      Atomic             Coordinates (Angstroms)
 Number     Number       Type             X           Y           Z
 ---------------------------------------------------------------------
      1          6           0       -0.000000    0.635900   -0.000000
      2          8           0       -1.323949    0.381124   -0.000000
      3          8           0        0.447609    1.752947   -0.000000
      4          1           0       -1.766360    1.239435   -0.000000
      5          6           0        0.856429   -0.616662    0.000000
      6          7           0        0.200424   -1.903701    0.000000
      7          1           0        1.506780   -0.534947    0.870775
      8          1           0        1.506780   -0.534947   -0.870775
      9          1           0       -0.389012   -2.015816   -0.812151
     10          1           0       -0.389012   -2.015816    0.812151
 ---------------------------------------------------------------------

 SCF Done:  E(RHF) =  -282.967355393     A.U. after   12 cycles
 E2 =    -0.1086557610D+01 EUMP2 =    -0.28405391300237D+03

 The electronic state is 1-A'.
 Alpha  occ. eigenvalues --  -20.61969 -20.54948 -15.55512 -11.38685 -11.27785
 Alpha  occ. eigenvalues --   -1.47437  -1.36806  -1.20199  -0.97574  -0.83407
 Alpha  occ. eigenvalues --   -0.71152  -0.70147  -0.69553  -0.63263  -0.59939
 Alpha  occ. eigenvalues --   -0.58371  -0.54833  -0.48742  -0.48400  -0.40517
 Alpha virt. eigenvalues --    0.04092   0.05007   0.06155   0.06179   0.08625
 Alpha virt. eigenvalues --    0.08754   0.09025   0.11015   0.11124   0.14408
 Alpha virt. eigenvalues --    0.14949   0.15344   0.16304   0.16542   0.16963

 Mulliken charges:
               1
     1  C    0.695067
     2  O   -0.546397
     3  O   -0.611576
     4  H    0.283991
     5  C   -0.137642
     6  N   -0.551499
     7  H    0.244573
     8  H    0.244573
     9  H    0.189455
    10  H    0.189455
 Sum of Mulliken charges =   0.00000

 Dipole moment (field-independent basis, Debye):
    X=             -1.7888    Y=             -1.0089    Z=             -0.0000  Tot=              2.0537
 Quadrupole moment (field-independent basis, Debye-Ang):
   XX=            -27.8416   YY=            -37.2488   ZZ=            -27.2229
   XY=             -2.1799   XZ=             -0.0000   YZ=              0.0000

 Normal termination of Gaussian 16 at Fri Jan 15 18:00:11 2021.
