 Gaussian 16, Revision C.01,
 Gaussian 16:  ES64L-G16RevC.01  3-Jul-2019

 ------------------
 #p mp2/jun-cc-pvqz
 ------------------

 --------------------------
 start best geom PCCP paper
 --------------------------
 Symbolic Z-matrix:
 Charge =  0 Multiplicity = 1

                         Standard orientation:
 ---------------------------------------------------------------------
 Center     Atomic      Atomic             Coordinates (Angstroms)
 Number     Number       Type             X           Y           Z
 ---------------------------------------------------------------------
      1          6           0       -0.000000    0.573396    0.000000
      2          8           0        0.957640    1.531040    0.000000
      3          8           0       -1.156728    0.877678    0.000000
      4          1           0        1.833849    1.134152   -0.000000
      5          6           0        0.517981   -0.858483   -0.000000
      6          7           0       -0.496418   -1.881566   -0.000000
      7          1           0        1.159024   -0.981844    0.876153
      8          1           0        1.159024   -0.981844   -0.876153
      9          1           0       -1.096075   -1.779366    0.807682
     10          1           0       -1.096075   -1.779366   -0.807682
 ---------------------------------------------------------------------

 SCF Done:  E(RHF) =  -282.961732222     A.U. after   12 cycles
 E2 =    -0.1087091144D+01 EUMP2 =    -0.28404882336568D+03

 The electronic state is 1-A'.
 Alpha  occ. eigenvalues --  -20.61791 -20.54957 -15.55802 -11.38554 -11.28992
 Alpha  occ. eigenvalues --   -1.46840  -1.37297  -1.20678  -0.97628  -0.83549
 Alpha  occ. eigenvalues --   -0.73954  -0.70617  -0.67303  -0.63221  -0.60832
 Alpha  occ. eigenvalues --   -0.59082  -0.54802  -0.48878  -0.47022  -0.41697
 Alpha virt. eigenvalues --    0.03427   0.05176   0.05714   0.05811   0.08686
 Alpha virt. eigenvalues --    0.08960   0.09105   0.10340   0.10768   0.14050
 Alpha virt. eigenvalues --    0.14649   0.15520   0.16364   0.16477   0.18760

 Mulliken charges:
               1
     1  C    0.746580
     2  O   -0.551745
     3  O   -0.592165
     4  H    0.284185
     5  C   -0.186597
     6  N   -0.570141
     7  H    0.236406
     8  H    0.236406
     9  H    0.198536
    10  H    0.198536
 Sum of Mulliken charges =   0.00000

 Dipole moment (field-independent basis, Debye):
    X=              3.0304    Y=             -1.5672    Z=              0.0000  Tot=              3.4116
 Quadrupole moment (field-independent basis, Debye-Ang):
   XX=            -26.6254   YY=            -38.9991   ZZ=            -27.2683
   XY=              3.9527   XZ=             -0.0000   YZ=             -0.0000

 Normal termination of Gaussian 16 at Fri Jan 15 18:04:30 2021.
