 Gaussian 16, Revision C.01,
 Gaussian 16:  ES64L-G16RevC.01  3-Jul-2019

 ------------------
 #p mp2/jun-cc-pvqz
 ------------------

 --------------------------
 start best geom PCCP paper
 --------------------------
 Symbolic Z-matrix:
 Charge =  0 Multiplicity = 1

                         Standard orientation:
 ---------------------------------------------------------------------
 Center     Atomic      Atomic             Coordinates (Angstroms)
 Number     Number       Type             X           Y           Z
 ---------------------------------------------------------------------
      1          6           0       -0.000000    0.549747   -0.000000
      2          8           0        0.985218    1.470653   -0.000000
      3          8           0       -1.167485    0.837818    0.000000
      4          1           0        0.562653    2.338326   -0.000000
      5          6           0        0.564972   -0.854997   -0.000000
      6          7           0       -0.413127   -1.914567    0.000000
      7          1           0        1.214211   -0.944801    0.871558
      8          1           0        1.214211   -0.944801   -0.871558
      9          1           0       -1.015438   -1.841513    0.808581
     10          1           0       -1.015438   -1.841513   -0.808581
 ---------------------------------------------------------------------

 SCF Done:  E(RHF) =  -282.970652960     A.U. after   12 cycles
 E2 =    -0.1085933063D+01 EUMP2 =    -0.28405658602294D+03

 The electronic state is 1-A'.
 Alpha  occ. eigenvalues --  -20.61682 -20.55437 -15.55114 -11.38637 -11.27738
 Alpha  occ. eigenvalues --   -1.47357  -1.37034  -1.19929  -0.98104  -0.81916
 Alpha  occ. eigenvalues --   -0.71251  -0.70203  -0.69874  -0.63282  -0.60534
 Alpha  occ. eigenvalues --   -0.58967  -0.53809  -0.49248  -0.46977  -0.41320
 Alpha virt. eigenvalues --    0.04421   0.04993   0.05800   0.06153   0.08796
 Alpha virt. eigenvalues --    0.08819   0.08883   0.11004   0.11224   0.14157
 Alpha virt. eigenvalues --    0.15032   0.15536   0.16296   0.16457   0.18671

 Mulliken charges:
               1
     1  C    0.708363
     2  O   -0.568061
     3  O   -0.628022
     4  H    0.297414
     5  C   -0.114683
     6  N   -0.566873
     7  H    0.242178
     8  H    0.242178
     9  H    0.193753
    10  H    0.193753
 Sum of Mulliken charges =  -0.00000

 Dipole moment (field-independent basis, Debye):
    X=              1.0629    Y=              0.7078    Z=              0.0000  Tot=              1.2770
 Quadrupole moment (field-independent basis, Debye-Ang):
   XX=            -33.0657   YY=            -30.2282   ZZ=            -27.2722
   XY=              2.7955   XZ=              0.0000   YZ=              0.0000

 Normal termination of Gaussian 16 at Fri Jan 15 18:09:00 2021.
