 Gaussian 16, Revision C.01,
 Gaussian 16:  ES64L-G16RevC.01  3-Jul-2019

 ------------------
 #p mp2/jun-cc-pvqz
 ------------------

 ------
 VII_SP
 ------
 Symbolic Z-matrix:
 Charge =  0 Multiplicity = 1

                         Standard orientation:
 ---------------------------------------------------------------------
 Center     Atomic      Atomic             Coordinates (Angstroms)
 Number     Number       Type             X           Y           Z
 ---------------------------------------------------------------------
      1          6           0        0.000000    0.678907    0.000000
      2          8           0       -1.337854    0.533471    0.000000
      3          8           0        0.506518    1.764722    0.000000
      4          1           0       -1.547449   -0.408206   -0.000000
      5          6           0        0.827086   -0.604884   -0.000000
      6          7           0        0.142184   -1.872117   -0.000000
      7          1           0        1.477562   -0.542869    0.871458
      8          1           0        1.477562   -0.542869   -0.871458
      9          1           0       -0.357397   -2.115457    0.838184
     10          1           0       -0.357397   -2.115457   -0.838184
 ---------------------------------------------------------------------

 SCF Done:  E(RHF) =  -282.958656314     A.U. after   12 cycles
 E2 =    -0.1088695203D+01 EUMP2 =    -0.28404735151677D+03

 The electronic state is 1-A'.
 Alpha  occ. eigenvalues --  -20.61373 -20.53919 -15.57814 -11.38047 -11.28964
 Alpha  occ. eigenvalues --   -1.46490  -1.36604  -1.21995  -0.97908  -0.83119
 Alpha  occ. eigenvalues --   -0.74459  -0.72622  -0.67161  -0.63554  -0.62326
 Alpha  occ. eigenvalues --   -0.57043  -0.56030  -0.48612  -0.47619  -0.40897
 Alpha virt. eigenvalues --    0.03147   0.05087   0.05765   0.06590   0.08672
 Alpha virt. eigenvalues --    0.08998   0.09032   0.09782   0.10170   0.13368
 Alpha virt. eigenvalues --    0.14696   0.15661   0.16736   0.17352   0.17410

 Mulliken charges:
               1
     1  C    0.720672
     2  O   -0.567007
     3  O   -0.589303
     4  H    0.289948
     5  C   -0.156788
     6  N   -0.578904
     7  H    0.244392
     8  H    0.244392
     9  H    0.196299
    10  H    0.196299
 Sum of Mulliken charges =  -0.00000

 Dipole moment (field-independent basis, Debye):
    X=             -0.9886    Y=             -4.5595    Z=              0.0000  Tot=              4.6654
 Quadrupole moment (field-independent basis, Debye-Ang):
   XX=            -29.8656   YY=            -37.5693   ZZ=            -26.9230
   XY=              3.1110   XZ=             -0.0000   YZ=              0.0000

 Normal termination of Gaussian 16 at Fri Jan 15 18:04:34 2021.
