 Gaussian 16, Revision C.01,
 Gaussian 16:  ES64L-G16RevC.01  3-Jul-2019

 ------------------
 #p mp2/jun-cc-pvqz
 ------------------

 -------
 VIII_SP
 -------
 Symbolic Z-matrix:
 Charge =  0 Multiplicity = 1

                         Standard orientation:
 ---------------------------------------------------------------------
 Center     Atomic      Atomic             Coordinates (Angstroms)
 Number     Number       Type             X           Y           Z
 ---------------------------------------------------------------------
      1          6           0        0.546143    0.148212    0.012628
      2          8           0        1.729714   -0.499968   -0.044362
      3          8           0        0.511357    1.343991    0.036745
      4          1           0        1.592593   -1.450896   -0.085742
      5          6           0       -0.679769   -0.738038    0.076616
      6          7           0       -1.874850    0.037759   -0.172157
      7          1           0       -0.657798   -1.217003    1.063110
      8          1           0       -0.576213   -1.530916   -0.669685
      9          1           0       -2.658726   -0.288884    0.371019
     10          1           0       -1.702724    1.010149    0.051861
 ---------------------------------------------------------------------

 SCF Done:  E(RHF) =  -282.959054183     A.U. after   12 cycles
 E2 =    -0.1087800924D+01 EUMP2 =    -0.28404685510698D+03

 The electronic state is 1-A.
 Alpha  occ. eigenvalues --  -20.61946 -20.55090 -15.55240 -11.39049 -11.28944
 Alpha  occ. eigenvalues --   -1.47155  -1.37588  -1.20132  -0.97768  -0.83669
 Alpha  occ. eigenvalues --   -0.74612  -0.68211  -0.67392  -0.65561  -0.60262
 Alpha  occ. eigenvalues --   -0.58463  -0.56472  -0.49012  -0.46093  -0.41092
 Alpha virt. eigenvalues --    0.03114   0.04781   0.05946   0.06141   0.08677
 Alpha virt. eigenvalues --    0.08856   0.09146   0.10654   0.11812   0.13989
 Alpha virt. eigenvalues --    0.14506   0.15485   0.16140   0.16639   0.18081

 Mulliken charges:
               1
     1  C    0.746645
     2  O   -0.556960
     3  O   -0.580882
     4  H    0.288197
     5  C   -0.159628
     6  N   -0.625764
     7  H    0.228253
     8  H    0.222877
     9  H    0.190446
    10  H    0.246816
 Sum of Mulliken charges =  -0.00000

 Dipole moment (field-independent basis, Debye):
    X=             -1.2865    Y=             -4.1578    Z=              1.2843  Tot=              4.5378
 Quadrupole moment (field-independent basis, Debye-Ang):
   XX=            -31.2961   YY=            -28.6266   ZZ=            -30.2760
   XY=             -3.5585   XZ=             -3.5612   YZ=              0.0315

 Normal termination of Gaussian 16 at Fri Jan 15 10:40:19 2021.
