 Gaussian 16, Revision C.01,
 Gaussian 16:  AM64L-G16RevC.01  3-Jul-2019

 -----------------
 #P HF jun-cc-pV5Z
 -----------------

 --------------------------
 start best geom PCCP paper
 --------------------------
 Symbolic Z-matrix:
 Charge =  0 Multiplicity = 1

                         Standard orientation:
 ---------------------------------------------------------------------
 Center     Atomic      Atomic             Coordinates (Angstroms)
 Number     Number       Type             X           Y           Z
 ---------------------------------------------------------------------
      1          6           0        0.618518   -0.113452    0.015582
      2          8           0        0.629857    1.232314    0.102216
      3          8           0        1.611391   -0.762918   -0.179712
      4          1           0        1.543352    1.512541   -0.033863
      5          6           0       -0.754494   -0.683284    0.258311
      6          7           0       -1.797230    0.162725   -0.300561
      7          1           0       -0.825344   -0.835413    1.343137
      8          1           0       -0.780740   -1.661095   -0.214728
      9          1           0       -2.709920   -0.223225   -0.105836
     10          1           0       -1.760866    1.093359    0.091830
 ---------------------------------------------------------------------

 SCF Done:  E(RHF) =  -282.970419662     A.U. after   12 cycles

 The electronic state is 1-A.
 Alpha  occ. eigenvalues --  -20.61492 -20.54885 -15.55538 -11.38693 -11.27740
 Alpha  occ. eigenvalues --   -1.47203  -1.36674  -1.20015  -0.97898  -0.82933
 Alpha  occ. eigenvalues --   -0.71757  -0.69129  -0.67174  -0.65058  -0.60208
 Alpha  occ. eigenvalues --   -0.58595  -0.55983  -0.49034  -0.46087  -0.40820
 Alpha virt. eigenvalues --    0.03199   0.03979   0.04943   0.05302   0.07273
 Alpha virt. eigenvalues --    0.07329   0.07540   0.09379   0.09573   0.11869
 Alpha virt. eigenvalues --    0.12802   0.13195   0.13487   0.14159   0.15335

 Mulliken charges:
               1
     1  C    0.641496
     2  O   -0.581954
     3  O   -0.547810
     4  H    0.415964
     5  C   -0.047325
     6  N   -0.772036
     7  H    0.113869
     8  H    0.147616
     9  H    0.304047
    10  H    0.326134
 Sum of Mulliken charges =  -0.00000

 Dipole moment (field-independent basis, Debye):
    X=             -1.9040    Y=              1.1126    Z=              1.6069  Tot=              2.7286
 Quadrupole moment (field-independent basis, Debye-Ang):
   XX=            -28.5089   YY=            -28.6398   ZZ=            -31.0523
   XY=              6.1972   XZ=             -1.9585   YZ=             -0.2802

 Normal termination of Gaussian 16 at Tue Jan 26 23:23:42 2021.
