 Gaussian 16, Revision C.01,
 Gaussian 16:  AM64L-G16RevC.01  3-Jul-2019

 -----------------
 #P HF jun-cc-pV5Z
 -----------------

 --------------------------
 start best geom PCCP paper
 --------------------------
 Symbolic Z-matrix:
 Charge =  0 Multiplicity = 1

                         Standard orientation:
 ---------------------------------------------------------------------
 Center     Atomic      Atomic             Coordinates (Angstroms)
 Number     Number       Type             X           Y           Z
 ---------------------------------------------------------------------
      1          6           0        0.533710    0.102893    0.014867
      2          8           0        1.632185   -0.670799   -0.066880
      3          8           0        0.575034    1.304539    0.045254
      4          1           0        2.393950   -0.078239   -0.074783
      5          6           0       -0.719436   -0.723120    0.103930
      6          7           0       -1.876755    0.096522   -0.192365
      7          1           0       -0.714656   -1.160119    1.109923
      8          1           0       -0.636201   -1.548521   -0.602525
      9          1           0       -2.714348   -0.276671    0.227657
     10          1           0       -1.734852    1.039339    0.146516
 ---------------------------------------------------------------------

 SCF Done:  E(RHF) =  -282.972460881     A.U. after   12 cycles

 The electronic state is 1-A.
 Alpha  occ. eigenvalues --  -20.61692 -20.55338 -15.54708 -11.38975 -11.27659
 Alpha  occ. eigenvalues --   -1.47502  -1.37151  -1.19486  -0.98317  -0.81608
 Alpha  occ. eigenvalues --   -0.72376  -0.71207  -0.67256  -0.63425  -0.60437
 Alpha  occ. eigenvalues --   -0.57835  -0.56592  -0.49241  -0.46295  -0.40430
 Alpha virt. eigenvalues --    0.03402   0.03971   0.04914   0.05287   0.07172
 Alpha virt. eigenvalues --    0.07357   0.07450   0.09490   0.09864   0.11880
 Alpha virt. eigenvalues --    0.12609   0.13367   0.13719   0.14867   0.15298

 Mulliken charges:
               1
     1  C    0.629229
     2  O   -0.566420
     3  O   -0.551582
     4  H    0.418131
     5  C   -0.073014
     6  N   -0.777734
     7  H    0.127827
     8  H    0.146499
     9  H    0.307402
    10  H    0.339663
 Sum of Mulliken charges =  -0.00000

 Dipole moment (field-independent basis, Debye):
    X=              0.0729    Y=             -1.8016    Z=              1.3416  Tot=              2.2474
 Quadrupole moment (field-independent basis, Debye-Ang):
   XX=            -23.6659   YY=            -33.2646   ZZ=            -30.4968
   XY=              1.2276   XZ=             -3.3771   YZ=              0.1019

 Normal termination of Gaussian 16 at Tue Jan 26 21:56:54 2021.
