 Gaussian 16, Revision C.01,
 Gaussian 16:  AM64L-G16RevC.01  3-Jul-2019

 -----------------
 #P HF jun-cc-pV5Z
 -----------------

 --------------------------
 start best geom PCCP paper
 --------------------------
 Symbolic Z-matrix:
 Charge =  0 Multiplicity = 1

                         Standard orientation:
 ---------------------------------------------------------------------
 Center     Atomic      Atomic             Coordinates (Angstroms)
 Number     Number       Type             X           Y           Z
 ---------------------------------------------------------------------
      1          6           0       -0.000000    0.635900    0.000000
      2          8           0       -1.323949    0.381124    0.000000
      3          8           0        0.447609    1.752947    0.000000
      4          1           0       -1.766360    1.239435    0.000000
      5          6           0        0.856429   -0.616662   -0.000000
      6          7           0        0.200424   -1.903701   -0.000000
      7          1           0        1.506780   -0.534947    0.870775
      8          1           0        1.506780   -0.534947   -0.870775
      9          1           0       -0.389012   -2.015816   -0.812151
     10          1           0       -0.389012   -2.015816    0.812151
 ---------------------------------------------------------------------

 SCF Done:  E(RHF) =  -282.971675181     A.U. after   12 cycles

 The electronic state is 1-A'.
 Alpha  occ. eigenvalues --  -20.61894 -20.54875 -15.55472 -11.38658 -11.27762
 Alpha  occ. eigenvalues --   -1.47412  -1.36782  -1.20186  -0.97565  -0.83401
 Alpha  occ. eigenvalues --   -0.71148  -0.70148  -0.69551  -0.63265  -0.59940
 Alpha  occ. eigenvalues --   -0.58372  -0.54837  -0.48744  -0.48402  -0.40521
 Alpha virt. eigenvalues --    0.03438   0.04199   0.04977   0.05138   0.07278
 Alpha virt. eigenvalues --    0.07295   0.07552   0.09198   0.09231   0.11960
 Alpha virt. eigenvalues --    0.12603   0.13403   0.13551   0.14463   0.14692

 Mulliken charges:
               1
     1  C    0.562994
     2  O   -0.583308
     3  O   -0.545411
     4  H    0.428100
     5  C    0.031201
     6  N   -0.761136
     7  H    0.118394
     8  H    0.118394
     9  H    0.315387
    10  H    0.315387
 Sum of Mulliken charges =  -0.00000

 Dipole moment (field-independent basis, Debye):
    X=             -1.7887    Y=             -1.0086    Z=              0.0000  Tot=              2.0534
 Quadrupole moment (field-independent basis, Debye-Ang):
   XX=            -27.8356   YY=            -37.2417   ZZ=            -27.2169
   XY=             -2.1801   XZ=             -0.0000   YZ=             -0.0000

 Normal termination of Gaussian 16 at Tue Jan 26 20:42:30 2021.
