 Gaussian 16, Revision C.01,
 Gaussian 16:  AM64L-G16RevC.01  3-Jul-2019

 -----------------
 #P HF jun-cc-pV5Z
 -----------------

 --------------------------
 start best geom PCCP paper
 --------------------------
 Symbolic Z-matrix:
 Charge =  0 Multiplicity = 1

                         Standard orientation:
 ---------------------------------------------------------------------
 Center     Atomic      Atomic             Coordinates (Angstroms)
 Number     Number       Type             X           Y           Z
 ---------------------------------------------------------------------
      1          6           0        0.000000    0.573396   -0.000000
      2          8           0        0.957640    1.531040   -0.000000
      3          8           0       -1.156728    0.877678   -0.000000
      4          1           0        1.833849    1.134152   -0.000000
      5          6           0        0.517981   -0.858483    0.000000
      6          7           0       -0.496418   -1.881566    0.000000
      7          1           0        1.159024   -0.981844    0.876153
      8          1           0        1.159024   -0.981844   -0.876153
      9          1           0       -1.096075   -1.779366    0.807682
     10          1           0       -1.096075   -1.779366   -0.807682
 ---------------------------------------------------------------------

 SCF Done:  E(RHF) =  -282.966056253     A.U. after   12 cycles

 The electronic state is 1-A'.
 Alpha  occ. eigenvalues --  -20.61717 -20.54884 -15.55762 -11.38527 -11.28970
 Alpha  occ. eigenvalues --   -1.46815  -1.37273  -1.20665  -0.97620  -0.83542
 Alpha  occ. eigenvalues --   -0.73952  -0.70618  -0.67301  -0.63222  -0.60833
 Alpha  occ. eigenvalues --   -0.59083  -0.54805  -0.48880  -0.47025  -0.41701
 Alpha virt. eigenvalues --    0.02788   0.04332   0.04589   0.04928   0.07292
 Alpha virt. eigenvalues --    0.07480   0.07536   0.08717   0.08863   0.11849
 Alpha virt. eigenvalues --    0.12372   0.13391   0.13902   0.14949   0.15492

 Mulliken charges:
               1
     1  C    0.573435
     2  O   -0.568704
     3  O   -0.527516
     4  H    0.421845
     5  C    0.024223
     6  N   -0.750743
     7  H    0.099306
     8  H    0.099306
     9  H    0.314423
    10  H    0.314423
 Sum of Mulliken charges =  -0.00000

 Dipole moment (field-independent basis, Debye):
    X=              3.0307    Y=             -1.5671    Z=              0.0000  Tot=              3.4119
 Quadrupole moment (field-independent basis, Debye-Ang):
   XX=            -26.6198   YY=            -38.9906   ZZ=            -27.2623
   XY=              3.9516   XZ=              0.0000   YZ=             -0.0000

 Normal termination of Gaussian 16 at Tue Jan 26 20:11:50 2021.
