 Gaussian 16, Revision C.01,
 Gaussian 16:  AM64L-G16RevC.01  3-Jul-2019

 -----------------
 #P HF jun-cc-pV5Z
 -----------------

 ------
 VII_SP
 ------
 Symbolic Z-matrix:
 Charge =  0 Multiplicity = 1

                         Standard orientation:
 ---------------------------------------------------------------------
 Center     Atomic      Atomic             Coordinates (Angstroms)
 Number     Number       Type             X           Y           Z
 ---------------------------------------------------------------------
      1          6           0        0.000000    0.678907    0.000000
      2          8           0       -1.337854    0.533471    0.000000
      3          8           0        0.506518    1.764722    0.000000
      4          1           0       -1.547449   -0.408206    0.000000
      5          6           0        0.827086   -0.604884    0.000000
      6          7           0        0.142184   -1.872117    0.000000
      7          1           0        1.477562   -0.542869    0.871458
      8          1           0        1.477562   -0.542869   -0.871458
      9          1           0       -0.357397   -2.115457    0.838185
     10          1           0       -0.357397   -2.115457   -0.838185
 ---------------------------------------------------------------------

 SCF Done:  E(RHF) =  -282.962978480     A.U. after   12 cycles

 The electronic state is 1-A'.
 Alpha  occ. eigenvalues --  -20.61298 -20.53846 -15.57776 -11.38019 -11.28941
 Alpha  occ. eigenvalues --   -1.46464  -1.36580  -1.21982  -0.97900  -0.83111
 Alpha  occ. eigenvalues --   -0.74457  -0.72623  -0.67159  -0.63556  -0.62326
 Alpha  occ. eigenvalues --   -0.57044  -0.56033  -0.48614  -0.47621  -0.40901
 Alpha virt. eigenvalues --    0.02505   0.04218   0.04606   0.05545   0.07315
 Alpha virt. eigenvalues --    0.07492   0.07667   0.08359   0.08414   0.11204
 Alpha virt. eigenvalues --    0.12490   0.13649   0.14170   0.14537   0.15112

 Mulliken charges:
               1
     1  C    0.572236
     2  O   -0.590612
     3  O   -0.523571
     4  H    0.421660
     5  C    0.049346
     6  N   -0.810062
     7  H    0.120216
     8  H    0.120216
     9  H    0.320285
    10  H    0.320285
 Sum of Mulliken charges =  -0.00000

 Dipole moment (field-independent basis, Debye):
    X=             -0.9879    Y=             -4.5593    Z=              0.0000  Tot=              4.6651
 Quadrupole moment (field-independent basis, Debye-Ang):
   XX=            -29.8585   YY=            -37.5613   ZZ=            -26.9178
   XY=              3.1095   XZ=             -0.0000   YZ=              0.0000

 Normal termination of Gaussian 16 at Wed Jan 27 01:23:08 2021.
