 Gaussian 16, Revision C.01,
 Gaussian 16:  AM64L-G16RevC.01  3-Jul-2019

 -----------------
 #P HF jun-cc-pV5Z
 -----------------

 -------
 VIII_SP
 -------
 Symbolic Z-matrix:
 Charge =  0 Multiplicity = 1

                         Standard orientation:
 ---------------------------------------------------------------------
 Center     Atomic      Atomic             Coordinates (Angstroms)
 Number     Number       Type             X           Y           Z
 ---------------------------------------------------------------------
      1          6           0        0.546143    0.148212    0.012628
      2          8           0        1.729714   -0.499968   -0.044362
      3          8           0        0.511357    1.343991    0.036745
      4          1           0        1.592593   -1.450896   -0.085742
      5          6           0       -0.679769   -0.738038    0.076616
      6          7           0       -1.874850    0.037759   -0.172157
      7          1           0       -0.657798   -1.217003    1.063110
      8          1           0       -0.576213   -1.530916   -0.669685
      9          1           0       -2.658726   -0.288884    0.371019
     10          1           0       -1.702724    1.010149    0.051861
 ---------------------------------------------------------------------

 SCF Done:  E(RHF) =  -282.963384850     A.U. after   12 cycles

 The electronic state is 1-A.
 Alpha  occ. eigenvalues --  -20.61871 -20.55017 -15.55202 -11.39021 -11.28923
 Alpha  occ. eigenvalues --   -1.47129  -1.37563  -1.20118  -0.97759  -0.83662
 Alpha  occ. eigenvalues --   -0.74610  -0.68211  -0.67390  -0.65561  -0.60264
 Alpha  occ. eigenvalues --   -0.58465  -0.56474  -0.49013  -0.46096  -0.41097
 Alpha virt. eigenvalues --    0.02487   0.03940   0.04827   0.05130   0.07262
 Alpha virt. eigenvalues --    0.07360   0.07604   0.09019   0.09605   0.11780
 Alpha virt. eigenvalues --    0.12302   0.13339   0.13632   0.14638   0.15226

 Mulliken charges:
               1
     1  C    0.623729
     2  O   -0.569709
     3  O   -0.523103
     4  H    0.426234
     5  C   -0.074627
     6  N   -0.789823
     7  H    0.124419
     8  H    0.119740
     9  H    0.312413
    10  H    0.350726
 Sum of Mulliken charges =  -0.00000

 Dipole moment (field-independent basis, Debye):
    X=             -1.2861    Y=             -4.1579    Z=              1.2837  Tot=              4.5376
 Quadrupole moment (field-independent basis, Debye-Ang):
   XX=            -31.2901   YY=            -28.6197   ZZ=            -30.2697
   XY=             -3.5573   XZ=             -3.5591   YZ=              0.0308

 Normal termination of Gaussian 16 at Wed Jan 27 00:51:51 2021.
