 Gaussian 16, Revision C.01,
 Gaussian 16:  ES64L-G16RevC.01  3-Jul-2019

 ---------------
 #p mp2=full/gen
 ---------------

 --
 SP
 --
 Symbolic Z-matrix:
 Charge =  0 Multiplicity = 1

                         Standard orientation:
 ---------------------------------------------------------------------
 Center     Atomic      Atomic             Coordinates (Angstroms)
 Number     Number       Type             X           Y           Z
 ---------------------------------------------------------------------
      1          6           0        0.282827   -0.796188    0.000000
      2          6           0       -1.027688   -1.557043    0.000000
      3          7           0       -0.905049   -2.904009    0.000000
      4          1           0       -0.008267   -3.351065    0.000000
      5          1           0       -1.737511   -3.464326    0.000000
      6          8           0       -2.105544   -0.990257    0.000000
      7          7           0        0.000000    0.610806    0.000000
      8          6           0        1.006282    1.514438    0.000000
      9          8           0        2.177919    1.162660    0.000000
     10          1           0       -0.971077    0.878473    0.000000
     11          6           0        0.597778    2.964559    0.000000
     12          1           0       -0.481679    3.098489    0.000000
     13          1           0        1.022934    3.442286    0.879869
     14          1           0        1.022934    3.442286   -0.879869
     15          1           0        0.876911   -1.063776   -0.877284
     16          1           0        0.876911   -1.063776    0.877284
 ---------------------------------------------------------------------

 SCF Done:  E(RHF) =  -414.955303768     A.U. after   14 cycles
 E2 =    -0.1939700320D+01 EUMP2 =    -0.41689500408874D+03

 The electronic state is 1-A'.
 Alpha  occ. eigenvalues --  -20.53351 -20.50609 -15.59623 -15.57913 -11.36704
 Alpha  occ. eigenvalues --  -11.34296 -11.28243 -11.23161  -1.40225  -1.37436
 Alpha  occ. eigenvalues --   -1.23434  -1.22965  -1.03068  -0.96762  -0.81909
 Alpha  occ. eigenvalues --   -0.79631  -0.75013  -0.68953  -0.66490  -0.66392
 Alpha  occ. eigenvalues --   -0.64709  -0.60462  -0.59548  -0.56904  -0.55811
 Alpha  occ. eigenvalues --   -0.55428  -0.49983  -0.44736  -0.43418  -0.41934
 Alpha  occ. eigenvalues --   -0.39251
 Alpha virt. eigenvalues --    0.12054   0.14326   0.16629   0.16700   0.18775
 Alpha virt. eigenvalues --    0.19407   0.19422   0.22738   0.24455   0.24959
 Alpha virt. eigenvalues --    0.28987   0.31889   0.34917   0.35682   0.37912

 Mulliken charges:
               1
     1  C    0.028565
     2  C    0.437997
     3  N   -0.297351
     4  H    0.157759
     5  H    0.167555
     6  O   -0.498037
     7  N   -0.270173
     8  C    0.425683
     9  O   -0.524115
    10  H    0.163134
    11  C   -0.156566
    12  H    0.051865
    13  H    0.080509
    14  H    0.080509
    15  H    0.076334
    16  H    0.076334
 Sum of Mulliken charges =  -0.00000

 Dipole moment (field-independent basis, Debye):
    X=             -1.0337    Y=             -2.3391    Z=             -0.0000  Tot=              2.5574
 Quadrupole moment (field-independent basis, Debye-Ang):
   XX=            -63.6095   YY=            -28.6205   ZZ=            -47.4915
   XY=             -4.1329   XZ=             -0.0000   YZ=             -0.0000

 Normal termination of Gaussian 16 at Fri Jan  8 19:37:39 2021.
