 Gaussian 16, Revision C.01,
 Gaussian 16:  ES64L-G16RevC.01  3-Jul-2019

 ---------------
 #p MP2=full/gen
 ---------------

 --
 SP
 --
 Symbolic Z-matrix:
 Charge =  0 Multiplicity = 1

                         Standard orientation:
 ---------------------------------------------------------------------
 Center     Atomic      Atomic             Coordinates (Angstroms)
 Number     Number       Type             X           Y           Z
 ---------------------------------------------------------------------
      1          6           0        0.282827   -0.796188    0.000000
      2          6           0       -1.027688   -1.557043    0.000000
      3          7           0       -0.905049   -2.904009    0.000000
      4          1           0       -0.008267   -3.351065    0.000000
      5          1           0       -1.737511   -3.464326    0.000000
      6          8           0       -2.105544   -0.990257    0.000000
      7          7           0        0.000000    0.610806    0.000000
      8          6           0        1.006282    1.514438    0.000000
      9          8           0        2.177919    1.162660    0.000000
     10          1           0       -0.971077    0.878473    0.000000
     11          6           0        0.597778    2.964559    0.000000
     12          1           0       -0.481679    3.098489    0.000000
     13          1           0        1.022934    3.442286    0.879869
     14          1           0        1.022934    3.442286   -0.879869
     15          1           0        0.876911   -1.063776   -0.877284
     16          1           0        0.876911   -1.063776    0.877284
 ---------------------------------------------------------------------

 SCF Done:  E(RHF) =  -414.954843096     A.U. after   14 cycles
 E2 =    -0.1940885600D+01 EUMP2 =    -0.41689572869565D+03

 The electronic state is 1-A'.
 Alpha  occ. eigenvalues --  -20.53341 -20.50597 -15.59615 -15.57912 -11.36705
 Alpha  occ. eigenvalues --  -11.34296 -11.28243 -11.23158  -1.40224  -1.37435
 Alpha  occ. eigenvalues --   -1.23431  -1.22962  -1.03066  -0.96760  -0.81909
 Alpha  occ. eigenvalues --   -0.79631  -0.75013  -0.68953  -0.66489  -0.66392
 Alpha  occ. eigenvalues --   -0.64708  -0.60462  -0.59547  -0.56901  -0.55811
 Alpha  occ. eigenvalues --   -0.55424  -0.49982  -0.44732  -0.43417  -0.41931
 Alpha  occ. eigenvalues --   -0.39248
 Alpha virt. eigenvalues --    0.12056   0.14330   0.16632   0.16702   0.18776
 Alpha virt. eigenvalues --    0.19414   0.19428   0.22740   0.24474   0.24961
 Alpha virt. eigenvalues --    0.29045   0.31945   0.34981   0.35770   0.37993

 Mulliken charges:
               1
     1  C   -0.011427
     2  C    0.398152
     3  N   -0.291418
     4  H    0.165736
     5  H    0.174016
     6  O   -0.480307
     7  N   -0.244075
     8  C    0.386460
     9  O   -0.506789
    10  H    0.171026
    11  C   -0.200590
    12  H    0.066882
    13  H    0.094445
    14  H    0.094445
    15  H    0.091723
    16  H    0.091723
 Sum of Mulliken charges =  -0.00000

 Dipole moment (field-independent basis, Debye):
    X=             -1.0329    Y=             -2.3395    Z=             -0.0000  Tot=              2.5573
 Quadrupole moment (field-independent basis, Debye-Ang):
   XX=            -63.6029   YY=            -28.6211   ZZ=            -47.4925
   XY=             -4.1332   XZ=              0.0000   YZ=             -0.0000

 Normal termination of Gaussian 16 at Fri Jan  8 09:53:24 2021.
