 Gaussian 16, Revision C.01,
 Gaussian 16:  ES64L-G16RevC.01  3-Jul-2019

 ---------------
 #p mp2=full/gen
 ---------------

 ---
 opt
 ---
 Symbolic Z-matrix:
 Charge =  0 Multiplicity = 1

                         Standard orientation:
 ---------------------------------------------------------------------
 Center     Atomic      Atomic             Coordinates (Angstroms)
 Number     Number       Type             X           Y           Z
 ---------------------------------------------------------------------
      1          6           0        0.701219   -0.783335    0.755990
      2          6           0        1.725702   -0.000592   -0.061003
      3          7           0        1.388546    1.285127   -0.292560
      4          1           0        0.520546    1.655563    0.064487
      5          1           0        2.019367    1.856102   -0.824481
      6          8           0        2.754081   -0.517926   -0.458583
      7          7           0       -0.572151   -0.931257    0.078689
      8          6           0       -1.511384    0.041617    0.089899
      9          8           0       -1.328240    1.101504    0.677624
     10          1           0       -0.759472   -1.784736   -0.413587
     11          6           0       -2.785771   -0.248570   -0.655048
     12          1           0       -3.623642   -0.077479    0.016166
     13          1           0       -2.829370   -1.263780   -1.042597
     14          1           0       -2.867922    0.454505   -1.481446
     15          1           0        0.537913   -0.266976    1.702147
     16          1           0        1.102489   -1.773630    0.945059
 ---------------------------------------------------------------------

 SCF Done:  E(RHF) =  -414.953702159     A.U. after   14 cycles
 E2 =    -0.1943009655D+01 EUMP2 =    -0.41689671181421D+03

 The electronic state is 1-A.
 Alpha  occ. eigenvalues --  -20.52956 -20.51055 -15.60539 -15.56636 -11.36686
 Alpha  occ. eigenvalues --  -11.34289 -11.28116 -11.24994  -1.40053  -1.37488
 Alpha  occ. eigenvalues --   -1.25424  -1.20279  -1.04213  -0.97264  -0.82563
 Alpha  occ. eigenvalues --   -0.78691  -0.73034  -0.71787  -0.67752  -0.66165
 Alpha  occ. eigenvalues --   -0.62596  -0.60116  -0.59517  -0.58359  -0.56353
 Alpha  occ. eigenvalues --   -0.53821  -0.53484  -0.44973  -0.44021  -0.40457
 Alpha  occ. eigenvalues --   -0.39734
 Alpha virt. eigenvalues --    0.11644   0.15434   0.15548   0.16645   0.18547
 Alpha virt. eigenvalues --    0.19522   0.20555   0.22712   0.23054   0.25918
 Alpha virt. eigenvalues --    0.28525   0.30507   0.31518   0.35219   0.36145

 Mulliken charges:
               1
     1  C   -0.022715
     2  C    0.424592
     3  N   -0.323432
     4  H    0.197019
     5  H    0.156744
     6  O   -0.484937
     7  N   -0.270755
     8  C    0.450553
     9  O   -0.550855
    10  H    0.147629
    11  C   -0.147449
    12  H    0.088623
    13  H    0.050001
    14  H    0.082513
    15  H    0.092232
    16  H    0.110237
 Sum of Mulliken charges =  -0.00000

 Dipole moment (field-independent basis, Debye):
    X=             -3.8079    Y=             -1.3799    Z=             -0.7565  Tot=              4.1203
 Quadrupole moment (field-independent basis, Debye-Ang):
   XX=            -55.7691   YY=            -43.8347   ZZ=            -47.2754
   XY=              9.4278   XZ=              5.8773   YZ=             -3.4969

 Normal termination of Gaussian 16 at Fri Jan  8 19:33:09 2021.
