 Gaussian 16, Revision C.01,
 Gaussian 16:  ES64L-G16RevC.01  3-Jul-2019

 ---------------
 #p MP2=full/gen
 ---------------

 ---
 opt
 ---
 Symbolic Z-matrix:
 Charge =  0 Multiplicity = 1

                         Standard orientation:
 ---------------------------------------------------------------------
 Center     Atomic      Atomic             Coordinates (Angstroms)
 Number     Number       Type             X           Y           Z
 ---------------------------------------------------------------------
      1          6           0        0.701219   -0.783335    0.755990
      2          6           0        1.725702   -0.000592   -0.061003
      3          7           0        1.388546    1.285127   -0.292560
      4          1           0        0.520546    1.655563    0.064487
      5          1           0        2.019367    1.856102   -0.824481
      6          8           0        2.754081   -0.517926   -0.458583
      7          7           0       -0.572151   -0.931257    0.078689
      8          6           0       -1.511384    0.041617    0.089899
      9          8           0       -1.328240    1.101504    0.677624
     10          1           0       -0.759472   -1.784736   -0.413587
     11          6           0       -2.785771   -0.248570   -0.655048
     12          1           0       -3.623642   -0.077479    0.016166
     13          1           0       -2.829370   -1.263780   -1.042597
     14          1           0       -2.867922    0.454505   -1.481446
     15          1           0        0.537913   -0.266976    1.702147
     16          1           0        1.102489   -1.773630    0.945059
 ---------------------------------------------------------------------

 SCF Done:  E(RHF) =  -414.953247683     A.U. after   14 cycles
 E2 =    -0.1944209993D+01 EUMP2 =    -0.41689745767622D+03

 The electronic state is 1-A.
 Alpha  occ. eigenvalues --  -20.52946 -20.51044 -15.60539 -15.56629 -11.36688
 Alpha  occ. eigenvalues --  -11.34290 -11.28116 -11.24991  -1.40052  -1.37487
 Alpha  occ. eigenvalues --   -1.25421  -1.20276  -1.04211  -0.97262  -0.82563
 Alpha  occ. eigenvalues --   -0.78690  -0.73035  -0.71787  -0.67752  -0.66165
 Alpha  occ. eigenvalues --   -0.62595  -0.60114  -0.59514  -0.58357  -0.56349
 Alpha  occ. eigenvalues --   -0.53821  -0.53483  -0.44971  -0.44019  -0.40455
 Alpha  occ. eigenvalues --   -0.39730
 Alpha virt. eigenvalues --    0.11647   0.15438   0.15551   0.16649   0.18551
 Alpha virt. eigenvalues --    0.19526   0.20561   0.22717   0.23064   0.25927
 Alpha virt. eigenvalues --    0.28582   0.30586   0.31582   0.35312   0.36210

 Mulliken charges:
               1
     1  C   -0.060817
     2  C    0.386074
     3  N   -0.317501
     4  H    0.204823
     5  H    0.163536
     6  O   -0.467632
     7  N   -0.247974
     8  C    0.411156
     9  O   -0.532033
    10  H    0.156017
    11  C   -0.192339
    12  H    0.102578
    13  H    0.065130
    14  H    0.096404
    15  H    0.107652
    16  H    0.124926
 Sum of Mulliken charges =  -0.00000

 Dipole moment (field-independent basis, Debye):
    X=             -3.8069    Y=             -1.3801    Z=             -0.7563  Tot=              4.1194
 Quadrupole moment (field-independent basis, Debye-Ang):
   XX=            -55.7639   YY=            -43.8349   ZZ=            -47.2748
   XY=              9.4247   XZ=              5.8767   YZ=             -3.4962

 Normal termination of Gaussian 16 at Fri Jan  8 09:49:07 2021.
