 Gaussian 16, Revision C.01,
 Gaussian 16:  ES64L-G16RevC.01  3-Jul-2019

 ----------
 #p MP2/gen
 ----------

 --
 sp
 --
 Symbolic Z-matrix:
 Charge =  0 Multiplicity = 1

                         Standard orientation:
 ---------------------------------------------------------------------
 Center     Atomic      Atomic             Coordinates (Angstroms)
 Number     Number       Type             X           Y           Z
 ---------------------------------------------------------------------
      1          6           0       -1.877977    0.021726   -0.173361
      2          8           0       -2.099924    1.124397   -0.661773
      3          7           0       -0.625541   -0.379254    0.159093
      4          1           0       -0.430668   -1.313804    0.486075
      5          6           0        0.522360    0.453701   -0.102507
      6          1           0        0.397219    0.916136   -1.086597
      7          6           0        0.674728    1.557592    0.948615
      8          1           0       -0.236164    2.154968    0.963284
      9          1           0        0.832942    1.115525    1.934034
     10          1           0        1.518797    2.210792    0.718425
     11          6           0        1.745970   -0.455393   -0.111647
     12          8           0        1.717731   -1.587932    0.347592
     13          7           0        2.869617    0.099271   -0.628193
     14          1           0        2.862329    1.005520   -1.058779
     15          1           0        3.712443   -0.448567   -0.647634
     16          6           0       -2.980578   -0.972676    0.104566
     17          1           0       -3.511422   -1.170421   -0.826797
     18          1           0       -2.615478   -1.911364    0.521122
     19          1           0       -3.688007   -0.520325    0.800023
 ---------------------------------------------------------------------

 SCF Done:  E(RHF) =  -454.003629401     A.U. after   14 cycles
 E2 =    -0.1736966997D+01 EUMP2 =    -0.45574059639842D+03

 The electronic state is 1-A.
 Alpha  occ. eigenvalues --  -20.53167 -20.50703 -15.59542 -15.57745 -11.36377
 Alpha  occ. eigenvalues --  -11.34516 -11.28596 -11.23245 -11.22771  -1.39755
 Alpha  occ. eigenvalues --   -1.37253  -1.23523  -1.22681  -1.05393  -0.98892
 Alpha  occ. eigenvalues --   -0.90415  -0.81555  -0.78427  -0.74993  -0.69148
 Alpha  occ. eigenvalues --   -0.66511  -0.65033  -0.63177  -0.61121  -0.59165
 Alpha  occ. eigenvalues --   -0.58063  -0.56649  -0.54774  -0.54099  -0.52718
 Alpha  occ. eigenvalues --   -0.49386  -0.43907  -0.43099  -0.41922  -0.39049
 Alpha virt. eigenvalues --    0.12098   0.14399   0.16112   0.17344   0.18252
 Alpha virt. eigenvalues --    0.18710   0.19594   0.20961   0.23026   0.24056
 Alpha virt. eigenvalues --    0.24849   0.25657   0.29449   0.30970   0.32070

 Mulliken charges:
               1
     1  C    0.431268
     2  O   -0.529762
     3  N   -0.285850
     4  H    0.163923
     5  C    0.062911
     6  H    0.091119
     7  C   -0.164976
     8  H    0.096085
     9  H    0.061396
    10  H    0.046817
    11  C    0.453869
    12  O   -0.504807
    13  N   -0.306371
    14  H    0.160227
    15  H    0.168033
    16  C   -0.157905
    17  H    0.080848
    18  H    0.053470
    19  H    0.079705
 Sum of Mulliken charges =  -0.00000

 Dipole moment (field-independent basis, Debye):
    X=              2.4159    Y=              0.1783    Z=             -0.2045  Tot=              2.4311
 Quadrupole moment (field-independent basis, Debye-Ang):
   XX=            -46.8469   YY=            -59.3083   ZZ=            -54.1937
   XY=             13.6643   XZ=             -8.2273   YZ=              1.9503

 Normal termination of Gaussian 16 at Mon Jan 11 17:07:31 2021.
