 Gaussian 16, Revision C.01,
 Gaussian 16:  ES64L-G16RevC.01  3-Jul-2019

 ---------------
 #p mp2=full/gen
 ---------------

 --
 sp
 --
 Symbolic Z-matrix:
 Charge =  0 Multiplicity = 1

                         Standard orientation:
 ---------------------------------------------------------------------
 Center     Atomic      Atomic             Coordinates (Angstroms)
 Number     Number       Type             X           Y           Z
 ---------------------------------------------------------------------
      1          6           0       -1.877977    0.021726   -0.173361
      2          8           0       -2.099924    1.124397   -0.661773
      3          7           0       -0.625541   -0.379254    0.159093
      4          1           0       -0.430668   -1.313804    0.486075
      5          6           0        0.522360    0.453701   -0.102507
      6          1           0        0.397219    0.916136   -1.086597
      7          6           0        0.674728    1.557592    0.948615
      8          1           0       -0.236164    2.154968    0.963284
      9          1           0        0.832942    1.115525    1.934034
     10          1           0        1.518797    2.210792    0.718425
     11          6           0        1.745970   -0.455393   -0.111647
     12          8           0        1.717731   -1.587932    0.347592
     13          7           0        2.869617    0.099271   -0.628193
     14          1           0        2.862329    1.005520   -1.058779
     15          1           0        3.712443   -0.448567   -0.647634
     16          6           0       -2.980578   -0.972676    0.104566
     17          1           0       -3.511422   -1.170421   -0.826797
     18          1           0       -2.615478   -1.911364    0.521122
     19          1           0       -3.688007   -0.520325    0.800023
 ---------------------------------------------------------------------

 SCF Done:  E(RHF) =  -454.003121849     A.U. after   14 cycles
 E2 =    -0.2168961722D+01 EUMP2 =    -0.45617208357123D+03

 The electronic state is 1-A.
 Alpha  occ. eigenvalues --  -20.53159 -20.50692 -15.59535 -15.57744 -11.36378
 Alpha  occ. eigenvalues --  -11.34517 -11.28601 -11.23242 -11.22770  -1.39754
 Alpha  occ. eigenvalues --   -1.37252  -1.23520  -1.22678  -1.05391  -0.98890
 Alpha  occ. eigenvalues --   -0.90414  -0.81555  -0.78427  -0.74994  -0.69148
 Alpha  occ. eigenvalues --   -0.66511  -0.65033  -0.63178  -0.61121  -0.59164
 Alpha  occ. eigenvalues --   -0.58062  -0.56645  -0.54771  -0.54098  -0.52714
 Alpha  occ. eigenvalues --   -0.49385  -0.43904  -0.43098  -0.41919  -0.39047
 Alpha virt. eigenvalues --    0.12101   0.14401   0.16116   0.17349   0.18253
 Alpha virt. eigenvalues --    0.18713   0.19599   0.20970   0.23030   0.24059
 Alpha virt. eigenvalues --    0.24872   0.25661   0.29494   0.31017   0.32114

 Mulliken charges:
               1
     1  C    0.392709
     2  O   -0.512362
     3  N   -0.262045
     4  H    0.171975
     5  C    0.044704
     6  H    0.106715
     7  C   -0.212483
     8  H    0.110847
     9  H    0.075798
    10  H    0.062249
    11  C    0.412290
    12  O   -0.487609
    13  N   -0.300292
    14  H    0.168202
    15  H    0.174421
    16  C   -0.201535
    17  H    0.094603
    18  H    0.068332
    19  H    0.093482
 Sum of Mulliken charges =  -0.00000

 Dipole moment (field-independent basis, Debye):
    X=              2.4156    Y=              0.1785    Z=             -0.2050  Tot=              2.4308
 Quadrupole moment (field-independent basis, Debye-Ang):
   XX=            -46.8470   YY=            -59.3045   ZZ=            -54.1942
   XY=             13.6613   XZ=             -8.2263   YZ=              1.9494

 Normal termination of Gaussian 16 at Mon Jan 11 17:59:07 2021.
