 Gaussian 16, Revision C.01,
 Gaussian 16:  ES64L-G16RevC.01  3-Jul-2019

 ----------
 #p MP2/gen
 ----------

 --
 sp
 --
 Symbolic Z-matrix:
 Charge =  0 Multiplicity = 1

                         Standard orientation:
 ---------------------------------------------------------------------
 Center     Atomic      Atomic             Coordinates (Angstroms)
 Number     Number       Type             X           Y           Z
 ---------------------------------------------------------------------
      1          6           0       -1.679689   -0.020617   -0.068079
      2          8           0       -1.655879   -0.917180   -0.910191
      3          7           0       -0.589521    0.733189    0.212750
      4          1           0       -0.639508    1.410107    0.955962
      5          6           0        0.685139    0.572546   -0.479582
      6          1           0        0.443945    0.290369   -1.507075
      7          6           0        1.462237    1.872979   -0.442263
      8          1           0        0.884606    2.669376   -0.913973
      9          1           0        1.697077    2.148621    0.587143
     10          1           0        2.408543    1.758587   -0.969345
     11          6           0        1.486684   -0.574884    0.159823
     12          8           0        2.471896   -0.375594    0.853341
     13          7           0        0.992835   -1.803460   -0.125627
     14          1           0        0.091669   -1.882214   -0.579466
     15          1           0        1.394162   -2.594820    0.348790
     16          6           0       -2.931694    0.305487    0.707724
     17          1           0       -3.251706   -0.589008    1.242295
     18          1           0       -2.798932    1.122872    1.416374
     19          1           0       -3.717240    0.567131   -0.001500
 ---------------------------------------------------------------------

 SCF Done:  E(RHF) =  -454.002946573     A.U. after   14 cycles
 E2 =    -0.1728249066D+01 EUMP2 =    -0.45573119563918D+03

 The electronic state is 1-A.
 Alpha  occ. eigenvalues --  -20.52825 -20.51216 -15.60255 -15.56574 -11.36685
 Alpha  occ. eigenvalues --  -11.34271 -11.28599 -11.24937 -11.22671  -1.39555
 Alpha  occ. eigenvalues --   -1.37364  -1.25330  -1.20062  -1.06104  -1.00217
 Alpha  occ. eigenvalues --   -0.89814  -0.81840  -0.78111  -0.72792  -0.70039
 Alpha  occ. eigenvalues --   -0.67574  -0.66776  -0.62507  -0.60461  -0.59903
 Alpha  occ. eigenvalues --   -0.58434  -0.55979  -0.53888  -0.53709  -0.53043
 Alpha  occ. eigenvalues --   -0.51706  -0.44776  -0.43777  -0.40594  -0.39392
 Alpha virt. eigenvalues --    0.12053   0.15248   0.15839   0.16199   0.17087
 Alpha virt. eigenvalues --    0.19158   0.20495   0.21119   0.22390   0.22896
 Alpha virt. eigenvalues --    0.24226   0.26110   0.29181   0.31340   0.32966

 Mulliken charges:
               1
     1  C    0.408583
     2  O   -0.533993
     3  N   -0.258015
     4  H    0.155470
     5  C    0.024627
     6  H    0.123586
     7  C   -0.211662
     8  H    0.081861
     9  H    0.083279
    10  H    0.090275
    11  C    0.395233
    12  O   -0.475271
    13  N   -0.319164
    14  H    0.206339
    15  H    0.159969
    16  C   -0.195132
    17  H    0.097624
    18  H    0.066064
    19  H    0.100327
 Sum of Mulliken charges =  -0.00000

 Dipole moment (field-independent basis, Debye):
    X=             -3.1019    Y=              1.9565    Z=              0.7996  Tot=              3.7536
 Quadrupole moment (field-independent basis, Debye-Ang):
   XX=            -61.4951   YY=            -48.4591   ZZ=            -55.9373
   XY=             -3.4023   XZ=             -9.6714   YZ=             -1.2764

 Normal termination of Gaussian 16 at Sat Jan  9 15:31:09 2021.
