 Gaussian 16, Revision C.01,
 Gaussian 16:  ES64L-G16RevC.01  3-Jul-2019

 ---------------
 #p MP2=full/gen
 ---------------

 --
 sp
 --
 Symbolic Z-matrix:
 Charge =  0 Multiplicity = 1

                         Standard orientation:
 ---------------------------------------------------------------------
 Center     Atomic      Atomic             Coordinates (Angstroms)
 Number     Number       Type             X           Y           Z
 ---------------------------------------------------------------------
      1          6           0       -1.679689   -0.020617   -0.068079
      2          8           0       -1.655879   -0.917180   -0.910191
      3          7           0       -0.589521    0.733189    0.212750
      4          1           0       -0.639508    1.410107    0.955962
      5          6           0        0.685139    0.572546   -0.479582
      6          1           0        0.443945    0.290369   -1.507075
      7          6           0        1.462237    1.872979   -0.442263
      8          1           0        0.884606    2.669376   -0.913973
      9          1           0        1.697077    2.148621    0.587143
     10          1           0        2.408543    1.758587   -0.969345
     11          6           0        1.486684   -0.574884    0.159823
     12          8           0        2.471896   -0.375594    0.853341
     13          7           0        0.992835   -1.803460   -0.125627
     14          1           0        0.091669   -1.882214   -0.579466
     15          1           0        1.394162   -2.594820    0.348790
     16          6           0       -2.931694    0.305487    0.707724
     17          1           0       -3.251706   -0.589008    1.242295
     18          1           0       -2.798932    1.122872    1.416374
     19          1           0       -3.717240    0.567131   -0.001500
 ---------------------------------------------------------------------

 SCF Done:  E(RHF) =  -454.003450541     A.U. after   14 cycles
 E2 =    -0.2169569179D+01 EUMP2 =    -0.45617301971994D+03

 The electronic state is 1-A.
 Alpha  occ. eigenvalues --  -20.52833 -20.51226 -15.60255 -15.56581 -11.36683
 Alpha  occ. eigenvalues --  -11.34270 -11.28594 -11.24939 -11.22673  -1.39555
 Alpha  occ. eigenvalues --   -1.37364  -1.25332  -1.20065  -1.06105  -1.00218
 Alpha  occ. eigenvalues --   -0.89815  -0.81839  -0.78111  -0.72790  -0.70039
 Alpha  occ. eigenvalues --   -0.67574  -0.66775  -0.62506  -0.60463  -0.59904
 Alpha  occ. eigenvalues --   -0.58437  -0.55980  -0.53889  -0.53711  -0.53043
 Alpha  occ. eigenvalues --   -0.51710  -0.44778  -0.43779  -0.40595  -0.39394
 Alpha virt. eigenvalues --    0.12050   0.15244   0.15838   0.16195   0.17083
 Alpha virt. eigenvalues --    0.19155   0.20489   0.21114   0.22385   0.22889
 Alpha virt. eigenvalues --    0.24219   0.26098   0.29129   0.31280   0.32915

 Mulliken charges:
               1
     1  C    0.448026
     2  O   -0.552582
     3  N   -0.280569
     4  H    0.147266
     5  C    0.039382
     6  H    0.107985
     7  C   -0.162171
     8  H    0.067003
     9  H    0.068845
    10  H    0.075432
    11  C    0.436499
    12  O   -0.492422
    13  N   -0.325494
    14  H    0.198610
    15  H    0.153509
    16  C   -0.150810
    17  H    0.083875
    18  H    0.051083
    19  H    0.086531
 Sum of Mulliken charges =  -0.00000

 Dipole moment (field-independent basis, Debye):
    X=             -3.1023    Y=              1.9570    Z=              0.7994  Tot=              3.7541
 Quadrupole moment (field-independent basis, Debye-Ang):
   XX=            -61.4990   YY=            -48.4576   ZZ=            -55.9379
   XY=             -3.4036   XZ=             -9.6735   YZ=             -1.2759

 Normal termination of Gaussian 16 at Sat Jan  9 15:48:57 2021.
