 Gaussian 16, Revision C.01,
 Gaussian 16:  ES64L-G16RevC.01  3-Jul-2019

 ----------------------
 #p ccsd(t) aug-cc-pvtz
 ----------------------

 --------------------------
 start best geom PCCP paper
 --------------------------
 Symbolic Z-matrix:
 Charge =  0 Multiplicity = 1

                         Standard orientation:
 ---------------------------------------------------------------------
 Center     Atomic      Atomic             Coordinates (Angstroms)
 Number     Number       Type             X           Y           Z
 ---------------------------------------------------------------------
      1          7           0       -1.777783    0.124928   -0.048772
      2          1           0       -2.176227    0.113925   -0.975812
      3          6           0       -0.642823   -0.786994    0.071611
      4          6           0        0.686110   -0.041625    0.003814
      5          1           0       -0.662886   -1.287754    1.038553
      6          1           0       -0.617441   -1.563047   -0.691946
      7          8           0        1.742553   -0.607441   -0.059578
      8          8           0        0.574514    1.288852    0.038515
      9          1           0       -2.512293   -0.090938    0.606942
     10          1           0       -0.382931    1.473747    0.079614
 ---------------------------------------------------------------------

 SCF Done:  E(RHF) =  -282.947971290     A.U. after   13 cycles
 E2 =    -0.1032762117D+01 EUMP2 =    -0.28398073340741D+03
 CCSD(T)
 CCSD(T)= -0.28404177170D+03

 The electronic state is 1-A.
 Alpha  occ. eigenvalues --  -20.59876 -20.53444 -15.58860 -11.37497 -11.29105
 Alpha  occ. eigenvalues --   -1.45508  -1.35752  -1.22450  -0.97979  -0.81274
 Alpha  occ. eigenvalues --   -0.73743  -0.71498  -0.67781  -0.62810  -0.62362
 Alpha  occ. eigenvalues --   -0.56309  -0.55851  -0.47409  -0.46597  -0.42503
 Alpha virt. eigenvalues --    0.01634   0.03381   0.03859   0.04669   0.06149
 Alpha virt. eigenvalues --    0.08250   0.09654   0.09985   0.10077   0.11823
 Alpha virt. eigenvalues --    0.13283   0.13592   0.13809   0.15299   0.16321

 Mulliken charges:
               1
     1  N   -0.464483
     2  H    0.108924
     3  C   -0.033568
     4  C    0.462006
     5  H    0.311736
     6  H    0.320935
     7  O   -0.675312
     8  O   -0.431390
     9  H    0.138781
    10  H    0.262370
 Sum of Mulliken charges =  -0.00000

 Dipole moment (field-independent basis, Debye):
    X=             -5.8995    Y=             -0.7049    Z=             -0.0099  Tot=              5.9415
 Quadrupole moment (field-independent basis, Debye-Ang):
   XX=            -32.2250   YY=            -31.3054   ZZ=            -27.1458
   XY=              1.8272   XZ=              0.5515   YZ=             -0.4840

 1\1\GINC-CU39\SP\RCCSD(T)-FC\Aug-CC-pVTZ\C2H5N1O2\ROOT\19-Jan-2021\0\\
 #p ccsd(t) aug-cc-pvtz\\start best geom PCCP paper\\0,1\N\H,1,1.0091\C
 ,1,1.4609,2,112.0646\C,3,1.5252,1,111.6045,2,101.3936,0\H,3,1.0891,1,1
 10.2343,4,117.8521,0\H,3,1.089,1,113.9016,4,-121.6454,0\O,4,1.2001,3,1
 22.6125,1,-171.93,0\O,4,1.3356,3,114.3853,1,8.8971,0\H,1,1.008,3,112.2
 608,4,-136.9715,0\H,8,0.976,4,105.7699,3,-1.3866,0\\Version=ES64L-G16R
 evC.01\State=1-A\HF=-282.9479713\MP2=-283.9807334\MP3=-283.9903315\MP4
 D=-284.0112269\MP4DQ=-283.9879211\MP4SDQ=-283.9994115\CCSD=-283.996317
 \CCSD(T)=-284.0417717\RMSD=3.346e-09\PG=C01 [X(C2H5N1O2)]\\@
 Normal termination of Gaussian 16 at Tue Jan 19 06:30:51 2021.
