 Gaussian 16, Revision C.01,
 Gaussian 16:  ES64L-G16RevC.01  3-Jul-2019

 ----------------------
 #p ccsd(t) aug-cc-pvtz
 ----------------------

 --------------------------
 start best geom PCCP paper
 --------------------------
 Symbolic Z-matrix:
 Charge =  0 Multiplicity = 1

                         Standard orientation:
 ---------------------------------------------------------------------
 Center     Atomic      Atomic             Coordinates (Angstroms)
 Number     Number       Type             X           Y           Z
 ---------------------------------------------------------------------
      1          6           0        0.618518   -0.113452    0.015582
      2          8           0        0.629857    1.232314    0.102216
      3          8           0        1.611391   -0.762918   -0.179712
      4          1           0        1.543352    1.512541   -0.033863
      5          6           0       -0.754494   -0.683284    0.258311
      6          7           0       -1.797230    0.162725   -0.300561
      7          1           0       -0.825344   -0.835413    1.343137
      8          1           0       -0.780740   -1.661095   -0.214728
      9          1           0       -2.709920   -0.223225   -0.105836
     10          1           0       -1.760866    1.093359    0.091830
 ---------------------------------------------------------------------

 SCF Done:  E(RHF) =  -282.948301879     A.U. after   13 cycles
 E2 =    -0.1028999752D+01 EUMP2 =    -0.28397730163058D+03
 CCSD(T)
 CCSD(T)= -0.28403862284D+03

 The electronic state is 1-A.
 Alpha  occ. eigenvalues --  -20.61838 -20.55231 -15.55760 -11.38848 -11.27872
 Alpha  occ. eigenvalues --   -1.47308  -1.36786  -1.20065  -0.97930  -0.82949
 Alpha  occ. eigenvalues --   -0.71761  -0.69131  -0.67165  -0.65049  -0.60195
 Alpha  occ. eigenvalues --   -0.58586  -0.55967  -0.49022  -0.46072  -0.40793
 Alpha virt. eigenvalues --    0.02508   0.03504   0.04338   0.04603   0.06266
 Alpha virt. eigenvalues --    0.08420   0.09758   0.10342   0.11401   0.12105
 Alpha virt. eigenvalues --    0.13168   0.13436   0.15095   0.15427   0.16529

 Mulliken charges:
               1
     1  C    0.398443
     2  O   -0.364161
     3  O   -0.716477
     4  H    0.225305
     5  C    0.152795
     6  N   -0.558889
     7  H    0.306613
     8  H    0.309432
     9  H    0.105720
    10  H    0.141219
 Sum of Mulliken charges =  -0.00000

 Dipole moment (field-independent basis, Debye):
    X=             -1.9052    Y=              1.1131    Z=              1.6079  Tot=              2.7302
 Quadrupole moment (field-independent basis, Debye-Ang):
   XX=            -28.5348   YY=            -28.6706   ZZ=            -31.0686
   XY=              6.2047   XZ=             -1.9556   YZ=             -0.2837

 1\1\GINC-CU39\SP\RCCSD(T)-FC\Aug-CC-pVTZ\C2H5N1O2\ROOT\19-Jan-2021\0\\
 #p ccsd(t) aug-cc-pvtz\\start best geom PCCP paper\\0,1\C\O,1,1.3486\O
 ,1,1.20239,2,122.85413\H,2,0.965152,1,106.77622,3,0.858776,0\C,1,1.506
 25,3,125.06726,2,-176.8326,0\N,5,1.45443,1,111.81084,3,-146.04703,0\H,
 5,1.09773,1,105.69489,3,88.80239,0\H,5,1.08654,1,106.9966,3,-25.78313,
 0\H,6,1.00989,5,110.58167,1,-178.47161,0\H,6,1.01063,5,111.13985,1,-58
 .48891,0\\Version=ES64L-G16RevC.01\State=1-A\HF=-282.9483019\MP2=-283.
 9773016\MP3=-283.9874422\MP4D=-284.0083997\MP4DQ=-283.9855749\MP4SDQ=-
 283.9968395\CCSD=-283.9938297\CCSD(T)=-284.0386228\RMSD=2.717e-09\PG=C
 Normal termination of Gaussian 16 at Tue Jan 19 05:30:56 2021.
