 Gaussian 16, Revision C.01,
 Gaussian 16:  ES64L-G16RevC.01  3-Jul-2019

 ----------------------
 #p ccsd(t) aug-cc-pvtz
 ----------------------

 --------------------------
 start best geom PCCP paper
 --------------------------
 Symbolic Z-matrix:
 Charge =  0 Multiplicity = 1

                         Standard orientation:
 ---------------------------------------------------------------------
 Center     Atomic      Atomic             Coordinates (Angstroms)
 Number     Number       Type             X           Y           Z
 ---------------------------------------------------------------------
      1          6           0        0.533710    0.102893    0.014867
      2          8           0        1.632185   -0.670799   -0.066880
      3          8           0        0.575034    1.304539    0.045254
      4          1           0        2.393950   -0.078239   -0.074783
      5          6           0       -0.719436   -0.723120    0.103930
      6          7           0       -1.876755    0.096522   -0.192365
      7          1           0       -0.714656   -1.160119    1.109923
      8          1           0       -0.636201   -1.548521   -0.602525
      9          1           0       -2.714348   -0.276671    0.227657
     10          1           0       -1.734852    1.039339    0.146516
 ---------------------------------------------------------------------

 SCF Done:  E(RHF) =  -282.950327832     A.U. after   12 cycles
 E2 =    -0.1029156158D+01 EUMP2 =    -0.28397948399028D+03
 CCSD(T)
 CCSD(T)= -0.28404073517D+03

 The electronic state is 1-A.
 Alpha  occ. eigenvalues --  -20.62040 -20.55684 -15.54931 -11.39130 -11.27791
 Alpha  occ. eigenvalues --   -1.47609  -1.37263  -1.19537  -0.98349  -0.81627
 Alpha  occ. eigenvalues --   -0.72376  -0.71211  -0.67248  -0.63417  -0.60426
 Alpha  occ. eigenvalues --   -0.57821  -0.56580  -0.49229  -0.46284  -0.40402
 Alpha virt. eigenvalues --    0.02651   0.03424   0.04462   0.04760   0.06114
 Alpha virt. eigenvalues --    0.09036   0.09792   0.09929   0.11125   0.12328
 Alpha virt. eigenvalues --    0.12836   0.14361   0.15328   0.15654   0.16284

 Mulliken charges:
               1
     1  C    0.417940
     2  O   -0.399911
     3  O   -0.709807
     4  H    0.246661
     5  C    0.109398
     6  N   -0.551810
     7  H    0.310663
     8  H    0.303954
     9  H    0.117097
    10  H    0.155816
 Sum of Mulliken charges =  -0.00000

 Dipole moment (field-independent basis, Debye):
    X=              0.0723    Y=             -1.8022    Z=              1.3424  Tot=              2.2484
 Quadrupole moment (field-independent basis, Debye-Ang):
   XX=            -23.6878   YY=            -33.3002   ZZ=            -30.5132
   XY=              1.2319   XZ=             -3.3760   YZ=              0.1010

 1\1\GINC-CU39\SP\RCCSD(T)-FC\Aug-CC-pVTZ\C2H5N1O2\ROOT\19-Jan-2021\0\\
 #p ccsd(t) aug-cc-pvtz\\start best geom PCCP paper\\0,1\C\O,1,1.34608\
 O,1,1.20274,2,123.21263\H,2,0.96513,1,106.9601,3,1.12063,0\C,1,1.50353
 ,3,125.17128,2,178.03326,0\N,5,1.44879,1,110.05161,3,18.04528,0\H,5,1.
 09682,1,105.6396,3,-106.18775,0\H,5,1.08963,1,108.30581,3,139.44601,0\
 H,6,1.00859,5,111.64684,1,-155.36007,0\H,6,1.01187,5,110.28053,1,-34.3
 1555,0\\Version=ES64L-G16RevC.01\State=1-A\HF=-282.9503278\MP2=-283.97
 9484\MP3=-283.9897317\MP4D=-284.0105297\MP4DQ=-283.987639\MP4SDQ=-283.
 998879\CCSD=-283.9959179\CCSD(T)=-284.0407352\RMSD=9.207e-09\PG=C01 [X
 Normal termination of Gaussian 16 at Tue Jan 19 03:32:54 2021.
