 Gaussian 16, Revision C.01,
 Gaussian 16:  ES64L-G16RevC.01  3-Jul-2019

 ----------------------
 #p ccsd(t) aug-cc-pvtz
 ----------------------

 --------------------------
 start best geom PCCP paper
 --------------------------
 Symbolic Z-matrix:
 Charge =  0 Multiplicity = 1

                         Standard orientation:
 ---------------------------------------------------------------------
 Center     Atomic      Atomic             Coordinates (Angstroms)
 Number     Number       Type             X           Y           Z
 ---------------------------------------------------------------------
      1          6           0        0.000000    0.635900    0.000000
      2          8           0       -1.323949    0.381124    0.000000
      3          8           0        0.447609    1.752947    0.000000
      4          1           0       -1.766360    1.239435    0.000000
      5          6           0        0.856429   -0.616662   -0.000000
      6          7           0        0.200424   -1.903701   -0.000000
      7          1           0        1.506780   -0.534947    0.870775
      8          1           0        1.506780   -0.534947   -0.870775
      9          1           0       -0.389012   -2.015816   -0.812151
     10          1           0       -0.389012   -2.015816    0.812151
 ---------------------------------------------------------------------

 SCF Done:  E(RHF) =  -282.949557755     A.U. after   13 cycles
 E2 =    -0.1029121289D+01 EUMP2 =    -0.28397867904364D+03
 CCSD(T)
 CCSD(T)= -0.28403998959D+03

 The electronic state is 1-A'.
 Alpha  occ. eigenvalues --  -20.62239 -20.55220 -15.55694 -11.38813 -11.27894
 Alpha  occ. eigenvalues --   -1.47516  -1.36893  -1.20236  -0.97597  -0.83417
 Alpha  occ. eigenvalues --   -0.71152  -0.70139  -0.69551  -0.63253  -0.59931
 Alpha  occ. eigenvalues --   -0.58361  -0.54817  -0.48728  -0.48388  -0.40498
 Alpha virt. eigenvalues --    0.02556   0.03946   0.04099   0.04383   0.06607
 Alpha virt. eigenvalues --    0.08299   0.09584   0.09990   0.10272   0.12079
 Alpha virt. eigenvalues --    0.13510   0.14131   0.14883   0.15633   0.15983

 Mulliken charges:
               1
     1  C    0.491181
     2  O   -0.371402
     3  O   -0.736557
     4  H    0.224535
     5  C    0.051752
     6  N   -0.575352
     7  H    0.332627
     8  H    0.332627
     9  H    0.125295
    10  H    0.125295
 Sum of Mulliken charges =  -0.00000

 Dipole moment (field-independent basis, Debye):
    X=             -1.7893    Y=             -1.0096    Z=              0.0000  Tot=              2.0545
 Quadrupole moment (field-independent basis, Debye-Ang):
   XX=            -27.8622   YY=            -37.2735   ZZ=            -27.2322
   XY=             -2.1873   XZ=              0.0000   YZ=             -0.0000

 1\1\GINC-CU39\SP\RCCSD(T)-FC\Aug-CC-pVTZ\C2H5N1O2\ROOT\19-Jan-2021\0\\
 #p ccsd(t) aug-cc-pvtz\\start best geom PCCP paper\\0,1\C\O,1,1.34824\
 O,1,1.20339,2,122.72896\H,2,0.965621,1,106.37597,3,0.,0\C,1,1.51736,3,
 123.80161,2,180.,0\N,5,1.44458,1,118.62999,3,180.,0\H,5,1.0899,1,105.9
 5621,3,56.19793,0\H,5,1.0899,1,105.95621,3,-56.19793,0\H,6,1.00975,5,1
 11.34671,1,59.71795,0\H,6,1.00975,5,111.34671,1,-59.71795,0\\Version=E
 S64L-G16RevC.01\State=1-A'\HF=-282.9495578\MP2=-283.978679\MP3=-283.98
 87878\MP4D=-284.0097001\MP4DQ=-283.9868004\MP4SDQ=-283.9981635\CCSD=-2
 83.995103\CCSD(T)=-284.0399896\RMSD=3.160e-09\PG=CS [SG(C2H1N1O2),X(H4
 Normal termination of Gaussian 16 at Tue Jan 19 01:41:19 2021.
