 Gaussian 16, Revision C.01,
 Gaussian 16:  ES64L-G16RevC.01  3-Jul-2019

 ----------------------
 #p ccsd(t) aug-cc-pvtz
 ----------------------

 --------------------------
 start best geom PCCP paper
 --------------------------
 Symbolic Z-matrix:
 Charge =  0 Multiplicity = 1

                         Standard orientation:
 ---------------------------------------------------------------------
 Center     Atomic      Atomic             Coordinates (Angstroms)
 Number     Number       Type             X           Y           Z
 ---------------------------------------------------------------------
      1          6           0        0.000000    0.573396   -0.000000
      2          8           0        0.957640    1.531040   -0.000000
      3          8           0       -1.156728    0.877678   -0.000000
      4          1           0        1.833849    1.134152   -0.000000
      5          6           0        0.517981   -0.858483    0.000000
      6          7           0       -0.496418   -1.881566    0.000000
      7          1           0        1.159024   -0.981844    0.876153
      8          1           0        1.159024   -0.981844   -0.876153
      9          1           0       -1.096075   -1.779366    0.807682
     10          1           0       -1.096075   -1.779366   -0.807682
 ---------------------------------------------------------------------

 SCF Done:  E(RHF) =  -282.943876000     A.U. after   13 cycles
 E2 =    -0.1029656255D+01 EUMP2 =    -0.28397353225553D+03
 CCSD(T)
 CCSD(T)= -0.28403509131D+03

 The electronic state is 1-A'.
 Alpha  occ. eigenvalues --  -20.62062 -20.55228 -15.55983 -11.38680 -11.29102
 Alpha  occ. eigenvalues --   -1.46920  -1.37383  -1.20716  -0.97650  -0.83563
 Alpha  occ. eigenvalues --   -0.73952  -0.70609  -0.67300  -0.63211  -0.60824
 Alpha  occ. eigenvalues --   -0.59071  -0.54784  -0.48868  -0.47009  -0.41676
 Alpha virt. eigenvalues --    0.02090   0.03648   0.03716   0.05155   0.06432
 Alpha virt. eigenvalues --    0.07441   0.09549   0.09906   0.10019   0.11366
 Alpha virt. eigenvalues --    0.12471   0.13500   0.15226   0.16028   0.16309

 Mulliken charges:
               1
     1  C    0.468718
     2  O   -0.405912
     3  O   -0.652697
     4  H    0.217420
     5  C    0.018839
     6  N   -0.568801
     7  H    0.331236
     8  H    0.331236
     9  H    0.129981
    10  H    0.129981
 Sum of Mulliken charges =  -0.00000

 Dipole moment (field-independent basis, Debye):
    X=              3.0318    Y=             -1.5690    Z=              0.0000  Tot=              3.4138
 Quadrupole moment (field-independent basis, Debye-Ang):
   XX=            -26.6486   YY=            -39.0253   ZZ=            -27.2750
   XY=              3.9505   XZ=             -0.0000   YZ=             -0.0000

 1\1\GINC-CU39\SP\RCCSD(T)-FC\Aug-CC-pVTZ\C2H5N1O2\ROOT\19-Jan-2021\0\\
 #p ccsd(t) aug-cc-pvtz\\start best geom PCCP paper\\0,1\C\O,1,1.35431\
 O,1,1.19608,2,120.26189\H,2,0.961906,1,110.63119,3,180.,0\C,1,1.52269,
 3,124.62553,2,180.,0\N,5,1.44073,1,115.35662,3,0.,0\H,5,1.09261,1,107.
 80356,3,-122.62433,0\H,5,1.09261,1,107.80356,3,122.62433,0\H,6,1.01113
 ,5,110.22995,1,-58.35404,0\H,6,1.01113,5,110.22995,1,58.35404,0\\Versi
 on=ES64L-G16RevC.01\State=1-A'\HF=-282.943876\MP2=-283.9735323\MP3=-28
 3.9840853\MP4D=-284.0049156\MP4DQ=-283.9818364\MP4SDQ=-283.9931788\CCS
 D=-283.9901158\CCSD(T)=-284.0350913\RMSD=2.868e-09\PG=CS [SG(C2H1N1O2)
 Normal termination of Gaussian 16 at Tue Jan 19 00:50:36 2021.
