 Gaussian 16, Revision C.01,
 Gaussian 16:  ES64L-G16RevC.01  3-Jul-2019

 ----------------------
 #p ccsd(t) aug-cc-pvtz
 ----------------------

 --------------------------
 start best geom PCCP paper
 --------------------------
 Symbolic Z-matrix:
 Charge =  0 Multiplicity = 1

                         Standard orientation:
 ---------------------------------------------------------------------
 Center     Atomic      Atomic             Coordinates (Angstroms)
 Number     Number       Type             X           Y           Z
 ---------------------------------------------------------------------
      1          6           0        0.000000    0.549747    0.000000
      2          8           0        0.985218    1.470653    0.000000
      3          8           0       -1.167485    0.837818    0.000000
      4          1           0        0.562653    2.338326    0.000000
      5          6           0        0.564972   -0.854997    0.000000
      6          7           0       -0.413127   -1.914567    0.000000
      7          1           0        1.214211   -0.944801    0.871558
      8          1           0        1.214211   -0.944801   -0.871558
      9          1           0       -1.015438   -1.841513    0.808581
     10          1           0       -1.015438   -1.841513   -0.808581
 ---------------------------------------------------------------------

 SCF Done:  E(RHF) =  -282.952839605     A.U. after   13 cycles
 E2 =    -0.1028468948D+01 EUMP2 =    -0.28398130855383D+03
 CCSD(T)
 CCSD(T)= -0.28404270202D+03

 The electronic state is 1-A'.
 Alpha  occ. eigenvalues --  -20.61955 -20.55710 -15.55296 -11.38765 -11.27848
 Alpha  occ. eigenvalues --   -1.47438  -1.37121  -1.19967  -0.98127  -0.81927
 Alpha  occ. eigenvalues --   -0.71254  -0.70197  -0.69866  -0.63273  -0.60526
 Alpha  occ. eigenvalues --   -0.58958  -0.53791  -0.49238  -0.46965  -0.41300
 Alpha virt. eigenvalues --    0.02750   0.03856   0.04140   0.04645   0.06722
 Alpha virt. eigenvalues --    0.08359   0.09659   0.09712   0.10131   0.12193
 Alpha virt. eigenvalues --    0.13044   0.14047   0.15368   0.15967   0.15983

 Mulliken charges:
               1
     1  C    0.412639
     2  O   -0.399276
     3  O   -0.713480
     4  H    0.255093
     5  C    0.100777
     6  N   -0.576225
     7  H    0.332577
     8  H    0.332577
     9  H    0.127660
    10  H    0.127660
 Sum of Mulliken charges =  -0.00000

 Dipole moment (field-independent basis, Debye):
    X=              1.0632    Y=              0.7075    Z=             -0.0000  Tot=              1.2771
 Quadrupole moment (field-independent basis, Debye-Ang):
   XX=            -33.0954   YY=            -30.2455   ZZ=            -27.2803
   XY=              2.7924   XZ=             -0.0000   YZ=              0.0000

 1\1\GINC-CU39\SP\RCCSD(T)-FC\Aug-CC-pVTZ\C2H5N1O2\ROOT\18-Jan-2021\0\\
 #p ccsd(t) aug-cc-pvtz\\start best geom PCCP paper\\0,1\C\O,1,1.3486\O
 ,1,1.2025,2,123.0718\H,2,0.9651,1,107.1011,3,0.,0\C,1,1.5141,3,125.77,
 2,180.,0\N,5,1.442,1,115.3802,3,0.,0\H,5,1.0905,1,107.3709,3,-123.1312
 ,0\H,5,1.0905,1,107.3709,3,123.1312,0\H,6,1.0109,5,110.5508,1,-58.6741
 ,0\H,6,1.0109,5,110.5508,1,58.6741,0\\Version=ES64L-G16RevC.01\State=1
 -A'\HF=-282.9528396\MP2=-283.9813086\MP3=-283.9917272\MP4D=-284.012536
 9\MP4DQ=-283.9896637\MP4SDQ=-284.0009152\CCSD=-283.9979344\CCSD(T)=-28
 Normal termination of Gaussian 16 at Mon Jan 18 23:58:19 2021.
