 Gaussian 16, Revision C.01,
 Gaussian 16:  ES64L-G16RevC.01  3-Jul-2019

 ----------------------
 #p ccsd(t) aug-cc-pvtz
 ----------------------

 ------
 VII_SP
 ------
 Symbolic Z-matrix:
 Charge =  0 Multiplicity = 1

                         Standard orientation:
 ---------------------------------------------------------------------
 Center     Atomic      Atomic             Coordinates (Angstroms)
 Number     Number       Type             X           Y           Z
 ---------------------------------------------------------------------
      1          6           0        0.000000    0.678907    0.000000
      2          8           0       -1.337854    0.533471    0.000000
      3          8           0        0.506518    1.764722    0.000000
      4          1           0       -1.547449   -0.408206    0.000000
      5          6           0        0.827086   -0.604884   -0.000000
      6          7           0        0.142184   -1.872117   -0.000000
      7          1           0        1.477562   -0.542869    0.871458
      8          1           0        1.477562   -0.542869   -0.871458
      9          1           0       -0.357397   -2.115457    0.838184
     10          1           0       -0.357397   -2.115457   -0.838184
 ---------------------------------------------------------------------

 SCF Done:  E(RHF) =  -282.940788025     A.U. after   13 cycles
 E2 =    -0.1031232682D+01 EUMP2 =    -0.28397202070706D+03
 CCSD(T)
 CCSD(T)= -0.28403314825D+03

 The electronic state is 1-A'.
 Alpha  occ. eigenvalues --  -20.61643 -20.54189 -15.58000 -11.38173 -11.29073
 Alpha  occ. eigenvalues --   -1.46568  -1.36690  -1.22031  -0.97929  -0.83132
 Alpha  occ. eigenvalues --   -0.74457  -0.72614  -0.67156  -0.63545  -0.62319
 Alpha  occ. eigenvalues --   -0.57031  -0.56013  -0.48596  -0.47607  -0.40879
 Alpha virt. eigenvalues --    0.01814   0.03531   0.03818   0.04669   0.06151
 Alpha virt. eigenvalues --    0.08116   0.09646   0.09996   0.10093   0.11737
 Alpha virt. eigenvalues --    0.13374   0.13507   0.13849   0.15323   0.16112

 Mulliken charges:
               1
     1  C    0.510311
     2  O   -0.390290
     3  O   -0.689490
     4  H    0.202578
     5  C    0.026509
     6  N   -0.550820
     7  H    0.332070
     8  H    0.332070
     9  H    0.113531
    10  H    0.113531
 Sum of Mulliken charges =  -0.00000

 Dipole moment (field-independent basis, Debye):
    X=             -0.9879    Y=             -4.5621    Z=              0.0000  Tot=              4.6679
 Quadrupole moment (field-independent basis, Debye-Ang):
   XX=            -29.8887   YY=            -37.5944   ZZ=            -26.9290
   XY=              3.1089   XZ=              0.0000   YZ=             -0.0000

 1\1\GINC-CU39\SP\RCCSD(T)-FC\Aug-CC-pVTZ\C2H5N1O2\ROOT\19-Jan-2021\0\\
 #p ccsd(t) aug-cc-pvtz\\VII_SP\\0,1\C\O,1,1.3457355\O,1,1.19814681,2,1
 21.21259871\H,2,0.96472033,1,108.75235793,3,180.,0\C,1,1.52715094,3,12
 2.19981511,2,180.,0\N,5,1.44047578,1,118.81834226,3,180.,0\H,5,1.08922
 214,1,105.99599411,3,56.33573548,0\H,5,1.08922214,1,105.99599411,3,-56
 .33573548,0\H,6,1.0056583,5,116.68391241,1,-68.87806903,0\H,6,1.005658
 3,5,116.68391241,1,68.87806903,0\\Version=ES64L-G16RevC.01\State=1-A'\
 HF=-282.940788\MP2=-283.9720207\MP3=-283.9818675\MP4D=-284.002676\MP4D
 Q=-283.9794964\MP4SDQ=-283.9909963\CCSD=-283.9878783\CCSD(T)=-284.0331
 Normal termination of Gaussian 16 at Tue Jan 19 07:22:48 2021.
