 Gaussian 16, Revision C.01,
 Gaussian 16:  ES64L-G16RevC.01  3-Jul-2019

 ----------------------
 #p ccsd(t) aug-cc-pvtz
 ----------------------

 -------
 VIII_SP
 -------
 Symbolic Z-matrix:
 Charge =  0 Multiplicity = 1

                         Standard orientation:
 ---------------------------------------------------------------------
 Center     Atomic      Atomic             Coordinates (Angstroms)
 Number     Number       Type             X           Y           Z
 ---------------------------------------------------------------------
      1          6           0        0.546143    0.148212    0.012628
      2          8           0        1.729714   -0.499968   -0.044362
      3          8           0        0.511357    1.343991    0.036745
      4          1           0        1.592593   -1.450896   -0.085742
      5          6           0       -0.679769   -0.738038    0.076616
      6          7           0       -1.874850    0.037759   -0.172157
      7          1           0       -0.657798   -1.217003    1.063110
      8          1           0       -0.576213   -1.530916   -0.669685
      9          1           0       -2.658726   -0.288884    0.371019
     10          1           0       -1.702724    1.010149    0.051861
 ---------------------------------------------------------------------

 SCF Done:  E(RHF) =  -282.941195058     A.U. after   12 cycles
 E2 =    -0.1030427516D+01 EUMP2 =    -0.28397162257331D+03
 CCSD(T)
 CCSD(T)= -0.28403304518D+03

 The electronic state is 1-A.
 Alpha  occ. eigenvalues --  -20.62218 -20.55361 -15.55424 -11.39177 -11.29054
 Alpha  occ. eigenvalues --   -1.47235  -1.37675  -1.20170  -0.97791  -0.83684
 Alpha  occ. eigenvalues --   -0.74611  -0.68204  -0.67387  -0.65557  -0.60250
 Alpha  occ. eigenvalues --   -0.58452  -0.56461  -0.49002  -0.46083  -0.41069
 Alpha virt. eigenvalues --    0.01948   0.03212   0.03983   0.05123   0.06170
 Alpha virt. eigenvalues --    0.08005   0.09881   0.10027   0.10905   0.11623
 Alpha virt. eigenvalues --    0.12491   0.13732   0.14474   0.15282   0.16207

 Mulliken charges:
               1
     1  C    0.486467
     2  O   -0.394097
     3  O   -0.643058
     4  H    0.214687
     5  C    0.015825
     6  N   -0.560394
     7  H    0.311360
     8  H    0.271610
     9  H    0.123704
    10  H    0.173896
 Sum of Mulliken charges =  -0.00000

 Dipole moment (field-independent basis, Debye):
    X=             -1.2880    Y=             -4.1599    Z=              1.2841  Tot=              4.5401
 Quadrupole moment (field-independent basis, Debye-Ang):
   XX=            -31.3218   YY=            -28.6503   ZZ=            -30.2839
   XY=             -3.5579   XZ=             -3.5578   YZ=              0.0305

 1\1\GINC-CU39\SP\RCCSD(T)-FC\Aug-CC-pVTZ\C2H5N1O2\ROOT\18-Jan-2021\0\\
 #p ccsd(t) aug-cc-pvtz\\VIII_SP\\0,1\C\O,1,1.3506392\O,1,1.1965287,2,1
 20.3932146\H,2,0.96165486,1,110.5740242,3,-178.19299,0\C,1,1.51406482,
 3,124.0964059,2,178.4170875,0\N,5,1.44636301,1,110.3514816,3,14.534240
 8,0\H,5,1.09684152,1,106.104928,3,-109.3302257,0\H,5,1.09377539,1,108.
 591649,3,135.7513316,0\H,6,1.00806641,5,112.0878145,1,-144.9571968,0\H
 ,6,1.01259705,5,109.6684359,1,-23.85712294,0\\Version=ES64L-G16RevC.01
 \State=1-A\HF=-282.9411951\MP2=-283.9716226\MP3=-283.9820462\MP4D=-284

 Normal termination of Gaussian 16 at Mon Jan 18 20:48:18 2021.
